;----------------------------TITLE -----------------------------------------------------------------------------------------
;   None
;
; This file was generated at 21:35 on 2025-08-14 by
;
;                  Automatic Topology Builder  
;
;                   REVISION 2025-01-17 09:57:26
;---------------------------------------------------------------------------------------------------------------------------
; Authors     : Martin Stroet, Bertrand Caron, Alpeshkumar K. Malde, Thomas Lee, Alan E. Mark
;
; Institute   : Molecular Dynamics group, 
;               School of Chemistry and Molecular Biosciences (SCMB),
;               The University of Queensland, QLD 4072, Australia
; URL         : https://atb.uq.edu.au
; Citations   : 1. Malde AK, Zuo L, Breeze M, Stroet M, Poger D, Nair PC, Oostenbrink C, Mark AE.
;                  An Automated force field Topology Builder (ATB) and repository: version 1.0.
;                  Journal of Chemical Theory and Computation, 2011, 7, 4026-4037.
;               2. Stroet M, Caron B, Visscher K, Geerke D, Malde AK, Mark AE.
;                  Automated Topology Builder version 3.0: Prediction of solvation free enthalpies in water and hexane.
;                  DOI:10.1021/acs.jctc.8b00768
;
; Disclaimer  : 
;      While every effort has been made to ensure the accuracy and validity of parameters provided below
;      the assignment of parameters is being based on an automated procedure combining data provided by a
;      given user as well as calculations performed using third party software. They are provided as a guide.
;      The authors of the ATB cannot guarantee that the parameters are complete or that the parameters provided
;      are appropriate for use in any specific application. Users are advised to treat these parameters with discretion
;      and to perform additional validation tests for their specific application if required. Neither the authors
;      of the ATB or The University of Queensland except any responsibly for how the parameters may be used.
;
; Release notes and warnings: 
;  (1) The topology is based on a set of atomic coordinates and other data provided by the user after
;      after quantum mechanical optimization of the structure using different levels of theory depending on
;      the nature of the molecule.
;  (2) In some cases the automatic bond, bond angle and dihedral type assignment is ambiguous.
;      In these cases alternative type codes are provided at the end of the line.
;  (3) While bonded parameters are taken where possible from the nominated force field non-standard bond, angle and dihedral
;      type code may be incorporated in cases where an exact match could not be found. These are marked as "non-standard"
;      or "uncertain" in comments.
;  (4) In some cases it is not possible to assign an appropriate parameter automatically. "00" is used as a place holder
;      for those fields that could not be determined automatically. The parameters in these fields must be assigned manually
;      before the file can be used.
;---------------------------------------------------------------------------------------------------------------------------
; Input Structure : CHTO
; Output          : UNITED ATOM topology
;	Use in conjunction with the corresponding united atom PDB file.
;---------------------------------------------------------------------------------------------------------------------------
; Citing this topology file
; ATB molid: 1840825
; ATB Topology Hash: 151e6
;---------------------------------------------------------------------------------------------------------------------------
; WARNING: This is only a template parameter file, parameters were generated based on input geometry alone
;---------------------------------------------------------------------------------------------------------------------------
;
;
[ moleculetype ]
; Name   nrexcl
CHTO     3
[ atoms ]
;  nr  type  resnr  resid  atom  cgnr  charge    mass
    1  HS14    1    CHTO   H203    1       00   1.0080
    2  OAlc    1    CHTO    O82    2       00  15.9994
    3     C    1    CHTO   C123    3       00  12.0110
    4    HC    1    CHTO   H227    4       00   1.0080
    5    OE    1    CHTO    O77    5       00  15.9994
    6     C    1    CHTO   C118    6       00  12.0110
    7    HC    1    CHTO   H222    7       00   1.0080
    8   CH2    1    CHTO   C125    8       00  14.0270
    9  OAlc    1    CHTO    O84    9       00  15.9994
   10  HS14    1    CHTO   H205   10       00   1.0080
   11     C    1    CHTO   C114   11       00  12.0110
   12    HC    1    CHTO   H218   12       00   1.0080
   13     C    1    CHTO   C116   13       00  12.0110
   14    HC    1    CHTO   H220   14       00   1.0080
   15  OAlc    1    CHTO    O79   15       00  15.9994
   16  HS14    1    CHTO   H201   16       00   1.0080
   17     C    1    CHTO   C120   17       00  12.0110
   18    HC    1    CHTO   H224   18       00   1.0080
   19  NPri    1    CHTO    N21   19       00  14.0067
   20  HS14    1    CHTO   H211   20       00   1.0080
   21  HS14    1    CHTO   H212   21       00   1.0080
   22    OE    1    CHTO    O75   22       00  15.9994
   23     C    1    CHTO   C112   23       00  12.0110
   24    HC    1    CHTO   H216   24       00   1.0080
   25    OE    1    CHTO    O73   25       00  15.9994
   26     C    1    CHTO   C113   26       00  12.0110
   27    HC    1    CHTO   H217   27       00   1.0080
   28   CH2    1    CHTO   C124   28       00  14.0270
   29  OAlc    1    CHTO    O83   29       00  15.9994
   30  HS14    1    CHTO   H204   30       00   1.0080
   31     C    1    CHTO   C109   31       00  12.0110
   32    HC    1    CHTO   H213   32       00   1.0080
   33     C    1    CHTO   C110   33       00  12.0110
   34    HC    1    CHTO   H214   34       00   1.0080
   35  OAlc    1    CHTO    O78   35       00  15.9994
   36  HS14    1    CHTO   H200   36       00   1.0080
   37     C    1    CHTO   C111   37       00  12.0110
   38    HC    1    CHTO   H215   38       00   1.0080
   39  NPri    1    CHTO    N19   39       00  14.0067
   40  HS14    1    CHTO   H207   40       00   1.0080
   41  HS14    1    CHTO   H208   41       00   1.0080
   42    OE    1    CHTO    O74   42       00  15.9994
   43     C    1    CHTO   C115   43       00  12.0110
   44    HC    1    CHTO   H219   44       00   1.0080
   45    OE    1    CHTO    O76   45       00  15.9994
   46     C    1    CHTO   C122   46       00  12.0110
   47    HC    1    CHTO   H226   47       00   1.0080
   48   CH2    1    CHTO   C126   48       00  14.0270
   49  OAlc    1    CHTO    O85   49       00  15.9994
   50  HS14    1    CHTO   H206   50       00   1.0080
   51     C    1    CHTO   C121   51       00  12.0110
   52    HC    1    CHTO   H225   52       00   1.0080
   53  OAlc    1    CHTO    O81   53       00  15.9994
   54  HS14    1    CHTO   H202   54       00   1.0080
   55     C    1    CHTO   C119   55       00  12.0110
   56    HC    1    CHTO   H223   56       00   1.0080
   57     C    1    CHTO   C117   57       00  12.0110
   58    HC    1    CHTO   H221   58       00   1.0080
   59  NPri    1    CHTO    N20   59       00  14.0067
   60  HS14    1    CHTO   H209   60       00   1.0080
   61  HS14    1    CHTO   H210   61       00   1.0080
   62    OE    1    CHTO    O80   62       00  15.9994
   63     C    1    CHTO   C103   63       00  12.0110
   64    HC    1    CHTO   H190   64       00   1.0080
   65     C    1    CHTO   C101   65       00  12.0110
   66    HC    1    CHTO   H188   66       00   1.0080
   67  OAlc    1    CHTO    O68   67       00  15.9994
   68  HS14    1    CHTO   H168   68       00   1.0080
   69     C    1    CHTO    C99   69       00  12.0110
   70    HC    1    CHTO   H186   70       00   1.0080
   71  NPri    1    CHTO    N17   71       00  14.0067
   72  HS14    1    CHTO   H174   72       00   1.0080
   73  HS14    1    CHTO   H175   73       00   1.0080
   74     C    1    CHTO    C97   74       00  12.0110
   75    HC    1    CHTO   H184   75       00   1.0080
   76    OE    1    CHTO    O64   76       00  15.9994
   77     C    1    CHTO   C104   77       00  12.0110
   78    HC    1    CHTO   H191   78       00   1.0080
   79   CH2    1    CHTO   C108   79       00  14.0270
   80  OAlc    1    CHTO    O71   80       00  15.9994
   81  HS14    1    CHTO   H171   81       00   1.0080
   82    OE    1    CHTO    O62   82       00  15.9994
   83     C    1    CHTO    C91   83       00  12.0110
   84    HC    1    CHTO   H178   84       00   1.0080
   85     C    1    CHTO    C92   85       00  12.0110
   86    HC    1    CHTO   H179   86       00   1.0080
   87  OAlc    1    CHTO    O66   87       00  15.9994
   88  HS14    1    CHTO   H166   88       00   1.0080
   89     C    1    CHTO    C93   89       00  12.0110
   90    HC    1    CHTO   H180   90       00   1.0080
   91  NPri    1    CHTO    N16   91       00  14.0067
   92  HS14    1    CHTO   H172   92       00   1.0080
   93  HS14    1    CHTO   H173   93       00   1.0080
   94     C    1    CHTO    C94   94       00  12.0110
   95    HC    1    CHTO   H181   95       00   1.0080
   96    OE    1    CHTO    O61   96       00  15.9994
   97     C    1    CHTO    C95   97       00  12.0110
   98    HC    1    CHTO   H182   98       00   1.0080
   99   CH2    1    CHTO   C106   99       00  14.0270
  100  OAlc    1    CHTO    O69  100       00  15.9994
  101  HS14    1    CHTO   H169  101       00   1.0080
  102    OE    1    CHTO    O63  102       00  15.9994
  103     C    1    CHTO    C96  103       00  12.0110
  104    HC    1    CHTO   H183  104       00   1.0080
  105     C    1    CHTO    C98  105       00  12.0110
  106    HC    1    CHTO   H185  106       00   1.0080
  107  OAlc    1    CHTO    O67  107       00  15.9994
  108  HS14    1    CHTO   H167  108       00   1.0080
  109     C    1    CHTO   C102  109       00  12.0110
  110    HC    1    CHTO   H189  110       00   1.0080
  111  NPri    1    CHTO    N18  111       00  14.0067
  112  HS14    1    CHTO   H176  112       00   1.0080
  113  HS14    1    CHTO   H177  113       00   1.0080
  114     C    1    CHTO   C105  114       00  12.0110
  115    HC    1    CHTO   H192  115       00   1.0080
  116    OE    1    CHTO    O65  116       00  15.9994
  117     C    1    CHTO   C100  117       00  12.0110
  118    HC    1    CHTO   H187  118       00   1.0080
  119   CH2    1    CHTO   C107  119       00  14.0270
  120  OAlc    1    CHTO    O70  120       00  15.9994
  121  HS14    1    CHTO   H170  121       00   1.0080
  122    OE    1    CHTO    O57  122       00  15.9994
  123     C    1    CHTO    C85  123       00  12.0110
  124    HC    1    CHTO   H157  124       00   1.0080
  125     C    1    CHTO    C83  125       00  12.0110
  126    HC    1    CHTO   H155  126       00   1.0080
  127  OAlc    1    CHTO    O56  127       00  15.9994
  128  HS14    1    CHTO   H135  128       00   1.0080
  129     C    1    CHTO    C81  129       00  12.0110
  130    HC    1    CHTO   H153  130       00   1.0080
  131  NPri    1    CHTO    N14  131       00  14.0067
  132  HS14    1    CHTO   H141  132       00   1.0080
  133  HS14    1    CHTO   H142  133       00   1.0080
  134     C    1    CHTO    C79  134       00  12.0110
  135    HC    1    CHTO   H151  135       00   1.0080
  136    OE    1    CHTO    O52  136       00  15.9994
  137     C    1    CHTO    C86  137       00  12.0110
  138    HC    1    CHTO   H158  138       00   1.0080
  139   CH2    1    CHTO    C90  139       00  14.0270
  140  OAlc    1    CHTO    O60  140       00  15.9994
  141  HS14    1    CHTO   H138  141       00   1.0080
  142    OE    1    CHTO    O50  142       00  15.9994
  143     C    1    CHTO    C73  143       00  12.0110
  144    HC    1    CHTO   H145  144       00   1.0080
  145     C    1    CHTO    C74  145       00  12.0110
  146    HC    1    CHTO   H146  146       00   1.0080
  147  OAlc    1    CHTO    O54  147       00  15.9994
  148  HS14    1    CHTO   H133  148       00   1.0080
  149     C    1    CHTO    C75  149       00  12.0110
  150    HC    1    CHTO   H147  150       00   1.0080
  151  NPri    1    CHTO    N13  151       00  14.0067
  152  HS14    1    CHTO   H139  152       00   1.0080
  153  HS14    1    CHTO   H140  153       00   1.0080
  154     C    1    CHTO    C76  154       00  12.0110
  155    HC    1    CHTO   H148  155       00   1.0080
  156    OE    1    CHTO    O49  156       00  15.9994
  157     C    1    CHTO    C77  157       00  12.0110
  158    HC    1    CHTO   H149  158       00   1.0080
  159   CH2    1    CHTO    C88  159       00  14.0270
  160  OAlc    1    CHTO    O58  160       00  15.9994
  161  HS14    1    CHTO   H136  161       00   1.0080
  162    OE    1    CHTO    O51  162       00  15.9994
  163     C    1    CHTO    C78  163       00  12.0110
  164    HC    1    CHTO   H150  164       00   1.0080
  165     C    1    CHTO    C80  165       00  12.0110
  166    HC    1    CHTO   H152  166       00   1.0080
  167  OAlc    1    CHTO    O55  167       00  15.9994
  168  HS14    1    CHTO   H134  168       00   1.0080
  169     C    1    CHTO    C84  169       00  12.0110
  170    HC    1    CHTO   H156  170       00   1.0080
  171  NPri    1    CHTO    N15  171       00  14.0067
  172  HS14    1    CHTO   H143  172       00   1.0080
  173  HS14    1    CHTO   H144  173       00   1.0080
  174     C    1    CHTO    C87  174       00  12.0110
  175    HC    1    CHTO   H159  175       00   1.0080
  176    OE    1    CHTO    O53  176       00  15.9994
  177     C    1    CHTO    C82  177       00  12.0110
  178    HC    1    CHTO   H154  178       00   1.0080
  179   CH2    1    CHTO    C89  179       00  14.0270
  180  OAlc    1    CHTO    O59  180       00  15.9994
  181  HS14    1    CHTO   H137  181       00   1.0080
  182    OE    1    CHTO    O45  182       00  15.9994
  183     C    1    CHTO    C67  183       00  12.0110
  184    HC    1    CHTO   H124  184       00   1.0080
  185     C    1    CHTO    C65  185       00  12.0110
  186    HC    1    CHTO   H122  186       00   1.0080
  187  OAlc    1    CHTO    O44  187       00  15.9994
  188  HS14    1    CHTO   H102  188       00   1.0080
  189     C    1    CHTO    C63  189       00  12.0110
  190    HC    1    CHTO   H120  190       00   1.0080
  191  NPri    1    CHTO    N11  191       00  14.0067
  192  HS14    1    CHTO   H108  192       00   1.0080
  193  HS14    1    CHTO   H109  193       00   1.0080
  194     C    1    CHTO    C61  194       00  12.0110
  195    HC    1    CHTO   H118  195       00   1.0080
  196    OE    1    CHTO    O40  196       00  15.9994
  197     C    1    CHTO    C68  197       00  12.0110
  198    HC    1    CHTO   H125  198       00   1.0080
  199   CH2    1    CHTO    C72  199       00  14.0270
  200  OAlc    1    CHTO    O48  200       00  15.9994
  201  HS14    1    CHTO   H105  201       00   1.0080
  202    OE    1    CHTO    O38  202       00  15.9994
  203     C    1    CHTO    C55  203       00  12.0110
  204    HC    1    CHTO   H112  204       00   1.0080
  205     C    1    CHTO    C56  205       00  12.0110
  206    HC    1    CHTO   H113  206       00   1.0080
  207  OAlc    1    CHTO    O42  207       00  15.9994
  208  HS14    1    CHTO   H100  208       00   1.0080
  209     C    1    CHTO    C57  209       00  12.0110
  210    HC    1    CHTO   H114  210       00   1.0080
  211  NPri    1    CHTO    N10  211       00  14.0067
  212  HS14    1    CHTO   H106  212       00   1.0080
  213  HS14    1    CHTO   H107  213       00   1.0080
  214     C    1    CHTO    C58  214       00  12.0110
  215    HC    1    CHTO   H115  215       00   1.0080
  216    OE    1    CHTO    O37  216       00  15.9994
  217     C    1    CHTO    C59  217       00  12.0110
  218    HC    1    CHTO   H116  218       00   1.0080
  219   CH2    1    CHTO    C70  219       00  14.0270
  220  OAlc    1    CHTO    O46  220       00  15.9994
  221  HS14    1    CHTO   H103  221       00   1.0080
  222    OE    1    CHTO    O39  222       00  15.9994
  223     C    1    CHTO    C60  223       00  12.0110
  224    HC    1    CHTO   H117  224       00   1.0080
  225     C    1    CHTO    C62  225       00  12.0110
  226    HC    1    CHTO   H119  226       00   1.0080
  227  OAlc    1    CHTO    O43  227       00  15.9994
  228  HS14    1    CHTO   H101  228       00   1.0080
  229     C    1    CHTO    C66  229       00  12.0110
  230    HC    1    CHTO   H123  230       00   1.0080
  231  NPri    1    CHTO    N12  231       00  14.0067
  232  HS14    1    CHTO   H110  232       00   1.0080
  233  HS14    1    CHTO   H111  233       00   1.0080
  234     C    1    CHTO    C69  234       00  12.0110
  235    HC    1    CHTO   H126  235       00   1.0080
  236    OE    1    CHTO    O41  236       00  15.9994
  237     C    1    CHTO    C64  237       00  12.0110
  238    HC    1    CHTO   H121  238       00   1.0080
  239   CH2    1    CHTO    C71  239       00  14.0270
  240  OAlc    1    CHTO    O47  240       00  15.9994
  241  HS14    1    CHTO   H104  241       00   1.0080
  242    OE    1    CHTO    O34  242       00  15.9994
  243     C    1    CHTO    C49  243       00  12.0110
  244    HC    1    CHTO    H91  244       00   1.0080
  245     C    1    CHTO    C47  245       00  12.0110
  246    HC    1    CHTO    H89  246       00   1.0080
  247  OAlc    1    CHTO    O33  247       00  15.9994
  248  HS14    1    CHTO    H70  248       00   1.0080
  249     C    1    CHTO    C45  249       00  12.0110
  250    HC    1    CHTO    H87  250       00   1.0080
  251  NPri    1    CHTO     N8  251       00  14.0067
  252  HS14    1    CHTO    H75  252       00   1.0080
  253  HS14    1    CHTO    H76  253       00   1.0080
  254     C    1    CHTO    C43  254       00  12.0110
  255    HC    1    CHTO    H85  255       00   1.0080
  256    OE    1    CHTO    O29  256       00  15.9994
  257     C    1    CHTO    C50  257       00  12.0110
  258    HC    1    CHTO    H92  258       00   1.0080
  259   CH2    1    CHTO    C54  259       00  14.0270
  260  OAlc    1    CHTO    O36  260       00  15.9994
  261  HS14    1    CHTO    H72  261       00   1.0080
  262    OE    1    CHTO    O27  262       00  15.9994
  263     C    1    CHTO    C37  263       00  12.0110
  264    HC    1    CHTO    H79  264       00   1.0080
  265     C    1    CHTO    C38  265       00  12.0110
  266    HC    1    CHTO    H80  266       00   1.0080
  267  OAlc    1    CHTO    O31  267       00  15.9994
  268  HS14    1    CHTO    H68  268       00   1.0080
  269     C    1    CHTO    C39  269       00  12.0110
  270    HC    1    CHTO    H81  270       00   1.0080
  271  NPri    1    CHTO     N7  271       00  14.0067
  272  HS14    1    CHTO    H73  272       00   1.0080
  273  HS14    1    CHTO    H74  273       00   1.0080
  274     C    1    CHTO    C40  274       00  12.0110
  275    HC    1    CHTO    H82  275       00   1.0080
  276    OE    1    CHTO    O26  276       00  15.9994
  277     C    1    CHTO    C41  277       00  12.0110
  278    HC    1    CHTO    H83  278       00   1.0080
  279   CH2    1    CHTO    C52  279       00  14.0270
  280  OAlc    1    CHTO    O35  280       00  15.9994
  281  HS14    1    CHTO    H71  281       00   1.0080
  282    OE    1    CHTO    O28  282       00  15.9994
  283     C    1    CHTO    C42  283       00  12.0110
  284    HC    1    CHTO    H84  284       00   1.0080
  285     C    1    CHTO    C44  285       00  12.0110
  286    HC    1    CHTO    H86  286       00   1.0080
  287  OAlc    1    CHTO    O32  287       00  15.9994
  288  HS14    1    CHTO    H69  288       00   1.0080
  289     C    1    CHTO    C48  289       00  12.0110
  290    HC    1    CHTO    H90  290       00   1.0080
  291  NPri    1    CHTO     N9  291       00  14.0067
  292  HS14    1    CHTO    H77  292       00   1.0080
  293  HS14    1    CHTO    H78  293       00   1.0080
  294     C    1    CHTO    C51  294       00  12.0110
  295    HC    1    CHTO    H93  295       00   1.0080
  296    OE    1    CHTO    O30  296       00  15.9994
  297     C    1    CHTO    C46  297       00  12.0110
  298    HC    1    CHTO    H88  298       00   1.0080
  299   CH2    1    CHTO    C53  299       00  14.0270
  300  OAlc    1    CHTO    O72  300       00  15.9994
  301  HS14    1    CHTO   H199  301       00   1.0080
  302    OE    1    CHTO    O22  302       00  15.9994
  303     C    1    CHTO    C31  303       00  12.0110
  304    HC    1    CHTO    H59  304       00   1.0080
  305     C    1    CHTO    C29  305       00  12.0110
  306    HC    1    CHTO    H57  306       00   1.0080
  307  OAlc    1    CHTO    O21  307       00  15.9994
  308  HS14    1    CHTO    H37  308       00   1.0080
  309     C    1    CHTO    C27  309       00  12.0110
  310    HC    1    CHTO    H55  310       00   1.0080
  311  NPri    1    CHTO     N5  311       00  14.0067
  312  HS14    1    CHTO    H43  312       00   1.0080
  313  HS14    1    CHTO    H44  313       00   1.0080
  314     C    1    CHTO    C25  314       00  12.0110
  315    HC    1    CHTO    H53  315       00   1.0080
  316    OE    1    CHTO    O17  316       00  15.9994
  317     C    1    CHTO    C32  317       00  12.0110
  318    HC    1    CHTO    H60  318       00   1.0080
  319   CH2    1    CHTO    C36  319       00  14.0270
  320  OAlc    1    CHTO    O25  320       00  15.9994
  321  HS14    1    CHTO    H40  321       00   1.0080
  322    OE    1    CHTO    O15  322       00  15.9994
  323     C    1    CHTO    C19  323       00  12.0110
  324    HC    1    CHTO    H47  324       00   1.0080
  325     C    1    CHTO    C20  325       00  12.0110
  326    HC    1    CHTO    H48  326       00   1.0080
  327  OAlc    1    CHTO    O19  327       00  15.9994
  328  HS14    1    CHTO    H35  328       00   1.0080
  329     C    1    CHTO    C21  329       00  12.0110
  330    HC    1    CHTO    H49  330       00   1.0080
  331  NPri    1    CHTO     N4  331       00  14.0067
  332  HS14    1    CHTO    H41  332       00   1.0080
  333  HS14    1    CHTO    H42  333       00   1.0080
  334     C    1    CHTO    C22  334       00  12.0110
  335    HC    1    CHTO    H50  335       00   1.0080
  336    OE    1    CHTO    O14  336       00  15.9994
  337     C    1    CHTO    C23  337       00  12.0110
  338    HC    1    CHTO    H51  338       00   1.0080
  339   CH2    1    CHTO    C34  339       00  14.0270
  340  OAlc    1    CHTO    O23  340       00  15.9994
  341  HS14    1    CHTO    H38  341       00   1.0080
  342    OE    1    CHTO    O16  342       00  15.9994
  343     C    1    CHTO    C24  343       00  12.0110
  344    HC    1    CHTO    H52  344       00   1.0080
  345     C    1    CHTO    C26  345       00  12.0110
  346    HC    1    CHTO    H54  346       00   1.0080
  347  OAlc    1    CHTO    O20  347       00  15.9994
  348  HS14    1    CHTO    H36  348       00   1.0080
  349     C    1    CHTO    C30  349       00  12.0110
  350    HC    1    CHTO    H58  350       00   1.0080
  351  NPri    1    CHTO     N6  351       00  14.0067
  352  HS14    1    CHTO    H45  352       00   1.0080
  353  HS14    1    CHTO    H46  353       00   1.0080
  354     C    1    CHTO    C33  354       00  12.0110
  355    HC    1    CHTO    H61  355       00   1.0080
  356    OE    1    CHTO    O18  356       00  15.9994
  357     C    1    CHTO    C28  357       00  12.0110
  358    HC    1    CHTO    H56  358       00   1.0080
  359   CH2    1    CHTO    C35  359       00  14.0270
  360  OAlc    1    CHTO    O24  360       00  15.9994
  361  HS14    1    CHTO    H39  361       00   1.0080
  362    OE    1    CHTO     O9  362       00  15.9994
  363     C    1    CHTO    C13  363       00  12.0110
  364    HC    1    CHTO    H26  364       00   1.0080
  365     C    1    CHTO    C11  365       00  12.0110
  366    HC    1    CHTO    H24  366       00   1.0080
  367  OAlc    1    CHTO     O8  367       00  15.9994
  368  HS14    1    CHTO     H3  368       00   1.0080
  369     C    1    CHTO     C9  369       00  12.0110
  370    HC    1    CHTO    H22  370       00   1.0080
  371  NPri    1    CHTO     N2  371       00  14.0067
  372  HS14    1    CHTO    H10  372       00   1.0080
  373  HS14    1    CHTO    H11  373       00   1.0080
  374     C    1    CHTO     C7  374       00  12.0110
  375    HC    1    CHTO    H20  375       00   1.0080
  376    OE    1    CHTO     O4  376       00  15.9994
  377     C    1    CHTO    C14  377       00  12.0110
  378    HC    1    CHTO    H27  378       00   1.0080
  379   CH2    1    CHTO    C18  379       00  14.0270
  380  OAlc    1    CHTO    O13  380       00  15.9994
  381  HS14    1    CHTO     H7  381       00   1.0080
  382    OE    1    CHTO     O2  382       00  15.9994
  383     C    1    CHTO     C1  383       00  12.0110
  384    HC    1    CHTO    H14  384       00   1.0080
  385     C    1    CHTO     C2  385       00  12.0110
  386    HC    1    CHTO    H15  386       00   1.0080
  387  OAlc    1    CHTO     O6  387       00  15.9994
  388  HS14    1    CHTO     H1  388       00   1.0080
  389     C    1    CHTO     C3  389       00  12.0110
  390    HC    1    CHTO    H16  390       00   1.0080
  391  NPri    1    CHTO     N1  391       00  14.0067
  392  HS14    1    CHTO     H8  392       00   1.0080
  393  HS14    1    CHTO     H9  393       00   1.0080
  394     C    1    CHTO     C4  394       00  12.0110
  395    HC    1    CHTO    H17  395       00   1.0080
  396    OE    1    CHTO     O1  396       00  15.9994
  397     C    1    CHTO     C5  397       00  12.0110
  398    HC    1    CHTO    H18  398       00   1.0080
  399   CH2    1    CHTO    C16  399       00  14.0270
  400  OAlc    1    CHTO    O11  400       00  15.9994
  401  HS14    1    CHTO     H5  401       00   1.0080
  402    OE    1    CHTO     O3  402       00  15.9994
  403     C    1    CHTO     C6  403       00  12.0110
  404    HC    1    CHTO    H19  404       00   1.0080
  405     C    1    CHTO     C8  405       00  12.0110
  406    HC    1    CHTO    H21  406       00   1.0080
  407  OAlc    1    CHTO     O7  407       00  15.9994
  408  HS14    1    CHTO     H2  408       00   1.0080
  409     C    1    CHTO    C12  409       00  12.0110
  410    HC    1    CHTO    H25  410       00   1.0080
  411  NPri    1    CHTO     N3  411       00  14.0067
  412  HS14    1    CHTO    H12  412       00   1.0080
  413  HS14    1    CHTO    H13  413       00   1.0080
  414     C    1    CHTO    C15  414       00  12.0110
  415    HC    1    CHTO    H28  415       00   1.0080
  416  OAlc    1    CHTO    O10  416       00  15.9994
  417  HS14    1    CHTO     H4  417       00   1.0080
  418    OE    1    CHTO     O5  418       00  15.9994
  419     C    1    CHTO    C10  419       00  12.0110
  420    HC    1    CHTO    H23  420       00   1.0080
  421   CH2    1    CHTO    C17  421       00  14.0270
  422  OAlc    1    CHTO    O12  422       00  15.9994
  423  HS14    1    CHTO     H6  423       00   1.0080
; total charge of the molecule:   0.000
[ bonds ]
;  ai   aj  funct   c0         c1
    1    2    2   0.0938   2.9551e+07
    2    3    2   0.1430   8.1800e+06
    3    4    2   0.1100   1.2100e+07
    3    5    2   0.1450   5.2319e+06
    3   17    2   0.1540   4.2166e+06
    5    6    2   0.1430   8.1800e+06
    6    7    2   0.1100   1.2100e+07
    6    8    2   0.1560   3.0819e+06
    6   11    2   0.1530   7.1500e+06
    8    9    2   0.1430   8.1800e+06
    9   10    2   0.0938   2.9551e+07
   11   12    2   0.1090   1.2300e+07
   11   13    2   0.1540   4.2166e+06
   11   22    2   0.1430   8.1800e+06
   13   14    2   0.1110   4.8697e+06
   13   15    2   0.1430   8.1800e+06
   13   17    2   0.1540   4.2166e+06
   15   16    2   0.0938   2.9551e+07
   17   18    2   0.1110   4.8697e+06
   17   19    2   0.1470   8.7100e+06
   19   20    2   0.1080   1.5003e+07
   19   21    2   0.1080   1.5003e+07
   22   23    2   0.1440   3.3758e+05
   23   24    2   0.1100   1.2100e+07
   23   25    2   0.1430   8.1800e+06
   23   37    2   0.1540   4.2166e+06
   25   26    2   0.1430   8.1800e+06
   26   27    2   0.1110   4.8697e+06
   26   28    2   0.1530   7.1500e+06
   26   31    2   0.1540   4.2166e+06
   28   29    2   0.1430   8.1800e+06
   29   30    2   0.0938   2.9551e+07
   31   32    2   0.1100   1.2100e+07
   31   33    2   0.1540   4.2166e+06
   31   42    2   0.1450   5.2319e+06
   33   34    2   0.1090   1.2300e+07
   33   35    2   0.1430   8.1800e+06
   33   37    2   0.1530   7.1500e+06
   35   36    2   0.0938   2.9551e+07
   37   38    2   0.1100   1.2100e+07
   37   39    2   0.1470   8.7100e+06
   39   40    2   0.1080   1.5003e+07
   39   41    2   0.1080   1.5003e+07
   42   43    2   0.1440   3.3758e+05
   43   44    2   0.1090   1.2300e+07
   43   45    2   0.1440   3.3758e+05
   43   57    2   0.1540   4.2166e+06
   45   46    2   0.1430   8.1800e+06
   46   47    2   0.1090   1.2300e+07
   46   48    2   0.1560   3.0819e+06
   46   51    2   0.1560   3.0819e+06
   48   49    2   0.1430   8.1800e+06
   49   50    2   0.0938   2.9551e+07
   51   52    2   0.1110   4.8697e+06
   51   53    2   0.1430   8.1800e+06
   51   55    2   0.1540   4.2166e+06
   53   54    2   0.0938   2.9551e+07
   55   56    2   0.1090   1.2300e+07
   55   57    2   0.1540   4.2166e+06
   55   62    2   0.1440   3.3758e+05
   57   58    2   0.1090   1.2300e+07
   57   59    2   0.1480   5.7300e+06
   59   60    2   0.1080   1.5003e+07
   59   61    2   0.1080   1.5003e+07
   62   63    2   0.1440   3.3758e+05
   63   64    2   0.1090   1.2300e+07
   63   65    2   0.1560   3.0819e+06
   63   77    2   0.1560   3.0819e+06
   65   66    2   0.1090   1.2300e+07
   65   67    2   0.1440   3.3758e+05
   65   69    2   0.1560   3.0819e+06
   67   68    2   0.0938   2.9551e+07
   69   70    2   0.1110   4.8697e+06
   69   71    2   0.1480   5.7300e+06
   69   74    2   0.1530   7.1500e+06
   71   72    2   0.1080   1.5003e+07
   71   73    2   0.1080   1.5003e+07
   74   75    2   0.1100   1.2100e+07
   74   76    2   0.1430   8.1800e+06
   74   82    2   0.1430   8.1800e+06
   76   77    2   0.1430   8.1800e+06
   77   78    2   0.1090   1.2300e+07
   77   79    2   0.1530   7.1500e+06
   79   80    2   0.1430   8.1800e+06
   80   81    2   0.0938   2.9551e+07
   82   83    2   0.1430   8.1800e+06
   83   84    2   0.1090   1.2300e+07
   83   85    2   0.1540   4.2166e+06
   83   97    2   0.1560   3.0819e+06
   85   86    2   0.1100   1.2100e+07
   85   87    2   0.1430   8.1800e+06
   85   89    2   0.1540   4.2166e+06
   87   88    2   0.0938   2.9551e+07
   89   90    2   0.1100   1.2100e+07
   89   91    2   0.1470   8.7100e+06
   89   94    2   0.1540   4.2166e+06
   91   92    2   0.1080   1.5003e+07
   91   93    2   0.1080   1.5003e+07
   94   95    2   0.1090   1.2300e+07
   94   96    2   0.1430   8.1800e+06
   94  102    2   0.1440   3.3758e+05
   96   97    2   0.1430   8.1800e+06
   97   98    2   0.1090   1.2300e+07
   97   99    2   0.1560   3.0819e+06
   99  100    2   0.1430   8.1800e+06
  100  101    2   0.0938   2.9551e+07
  102  103    2   0.1440   3.3758e+05
  103  104    2   0.1090   1.2300e+07
  103  105    2   0.1540   4.2166e+06
  103  117    2   0.1560   3.0819e+06
  105  106    2   0.1100   1.2100e+07
  105  107    2   0.1430   8.1800e+06
  105  109    2   0.1560   3.0819e+06
  107  108    2   0.0938   2.9551e+07
  109  110    2   0.1100   1.2100e+07
  109  111    2   0.1470   8.7100e+06
  109  114    2   0.1530   7.1500e+06
  111  112    2   0.1080   1.5003e+07
  111  113    2   0.1080   1.5003e+07
  114  115    2   0.1090   1.2300e+07
  114  116    2   0.1430   8.1800e+06
  114  122    2   0.1440   3.3758e+05
  116  117    2   0.1430   8.1800e+06
  117  118    2   0.1100   1.2100e+07
  117  119    2   0.1540   4.2166e+06
  119  120    2   0.1430   8.1800e+06
  120  121    2   0.0938   2.9551e+07
  122  123    2   0.1430   8.1800e+06
  123  124    2   0.1110   4.8697e+06
  123  125    2   0.1540   4.2166e+06
  123  137    2   0.1560   3.0819e+06
  125  126    2   0.1090   1.2300e+07
  125  127    2   0.1430   8.1800e+06
  125  129    2   0.1530   7.1500e+06
  127  128    2   0.0938   2.9551e+07
  129  130    2   0.1090   1.2300e+07
  129  131    2   0.1470   8.7100e+06
  129  134    2   0.1540   4.2166e+06
  131  132    2   0.1070   1.7032e+07
  131  133    2   0.1070   1.7032e+07
  134  135    2   0.1090   1.2300e+07
  134  136    2   0.1450   5.2319e+06
  134  142    2   0.1430   8.1800e+06
  136  137    2   0.1450   5.2319e+06
  137  138    2   0.1110   4.8697e+06
  137  139    2   0.1540   4.2166e+06
  139  140    2   0.1430   8.1800e+06
  140  141    2   0.0938   2.9551e+07
  142  143    2   0.1430   8.1800e+06
  143  144    2   0.1100   1.2100e+07
  143  145    2   0.1540   4.2166e+06
  143  157    2   0.1540   4.2166e+06
  145  146    2   0.1100   1.2100e+07
  145  147    2   0.1430   8.1800e+06
  145  149    2   0.1540   4.2166e+06
  147  148    2   0.0938   2.9551e+07
  149  150    2   0.1100   1.2100e+07
  149  151    2   0.1470   8.7100e+06
  149  154    2   0.1560   3.0819e+06
  151  152    2   0.1080   1.5003e+07
  151  153    2   0.1080   1.5003e+07
  154  155    2   0.1090   1.2300e+07
  154  156    2   0.1450   5.2319e+06
  154  162    2   0.1440   3.3758e+05
  156  157    2   0.1430   8.1800e+06
  157  158    2   0.1090   1.2300e+07
  157  159    2   0.1530   7.1500e+06
  159  160    2   0.1440   3.3758e+05
  160  161    2   0.0938   2.9551e+07
  162  163    2   0.1440   3.3758e+05
  163  164    2   0.1110   4.8697e+06
  163  165    2   0.1530   7.1500e+06
  163  177    2   0.1530   7.1500e+06
  165  166    2   0.1110   4.8697e+06
  165  167    2   0.1430   8.1800e+06
  165  169    2   0.1540   4.2166e+06
  167  168    2   0.0938   2.9551e+07
  169  170    2   0.1090   1.2300e+07
  169  171    2   0.1480   5.7300e+06
  169  174    2   0.1530   7.1500e+06
  171  172    2   0.1070   1.7032e+07
  171  173    2   0.1070   1.7032e+07
  174  175    2   0.1090   1.2300e+07
  174  176    2   0.1440   3.3758e+05
  174  182    2   0.1440   3.3758e+05
  176  177    2   0.1430   8.1800e+06
  177  178    2   0.1090   1.2300e+07
  177  179    2   0.1540   4.2166e+06
  179  180    2   0.1430   8.1800e+06
  180  181    2   0.0938   2.9551e+07
  182  183    2   0.1430   8.1800e+06
  183  184    2   0.1090   1.2300e+07
  183  185    2   0.1540   4.2166e+06
  183  197    2   0.1560   3.0819e+06
  185  186    2   0.1090   1.2300e+07
  185  187    2   0.1430   8.1800e+06
  185  189    2   0.1540   4.2166e+06
  187  188    2   0.0938   2.9551e+07
  189  190    2   0.1090   1.2300e+07
  189  191    2   0.1480   5.7300e+06
  189  194    2   0.1540   4.2166e+06
  191  192    2   0.1070   1.7032e+07
  191  193    2   0.1070   1.7032e+07
  194  195    2   0.1100   1.2100e+07
  194  196    2   0.1420   3.2236e+06
  194  202    2   0.1430   8.1800e+06
  196  197    2   0.1450   5.2319e+06
  197  198    2   0.1110   4.8697e+06
  197  199    2   0.1540   4.2166e+06
  199  200    2   0.1430   8.1800e+06
  200  201    2   0.0938   2.9551e+07
  202  203    2   0.1430   8.1800e+06
  203  204    2   0.1100   1.2100e+07
  203  205    2   0.1560   3.0819e+06
  203  217    2   0.1540   4.2166e+06
  205  206    2   0.1100   1.2100e+07
  205  207    2   0.1430   8.1800e+06
  205  209    2   0.1540   4.2166e+06
  207  208    2   0.0938   2.9551e+07
  209  210    2   0.1090   1.2300e+07
  209  211    2   0.1470   8.7100e+06
  209  214    2   0.1530   7.1500e+06
  211  212    2   0.1080   1.5003e+07
  211  213    2   0.1080   1.5003e+07
  214  215    2   0.1110   4.8697e+06
  214  216    2   0.1430   8.1800e+06
  214  222    2   0.1440   3.3758e+05
  216  217    2   0.1430   8.1800e+06
  217  218    2   0.1090   1.2300e+07
  217  219    2   0.1530   7.1500e+06
  219  220    2   0.1430   8.1800e+06
  220  221    2   0.0938   2.9551e+07
  222  223    2   0.1430   8.1800e+06
  223  224    2   0.1090   1.2300e+07
  223  225    2   0.1540   4.2166e+06
  223  237    2   0.1540   4.2166e+06
  225  226    2   0.1110   4.8697e+06
  225  227    2   0.1430   8.1800e+06
  225  229    2   0.1560   3.0819e+06
  227  228    2   0.0938   2.9551e+07
  229  230    2   0.1090   1.2300e+07
  229  231    2   0.1470   8.7100e+06
  229  234    2   0.1530   7.1500e+06
  231  232    2   0.1080   1.5003e+07
  231  233    2   0.1080   1.5003e+07
  234  235    2   0.1110   4.8697e+06
  234  236    2   0.1440   3.3758e+05
  234  242    2   0.1440   3.3758e+05
  236  237    2   0.1440   3.3758e+05
  237  238    2   0.1110   4.8697e+06
  237  239    2   0.1540   4.2166e+06
  239  240    2   0.1430   8.1800e+06
  240  241    2   0.0938   2.9551e+07
  242  243    2   0.1440   3.3758e+05
  243  244    2   0.1090   1.2300e+07
  243  245    2   0.1530   7.1500e+06
  243  257    2   0.1540   4.2166e+06
  245  246    2   0.1110   4.8697e+06
  245  247    2   0.1430   8.1800e+06
  245  249    2   0.1560   3.0819e+06
  247  248    2   0.0938   2.9551e+07
  249  250    2   0.1100   1.2100e+07
  249  251    2   0.1470   8.7100e+06
  249  254    2   0.1560   3.0819e+06
  251  252    2   0.1080   1.5003e+07
  251  253    2   0.1080   1.5003e+07
  254  255    2   0.1090   1.2300e+07
  254  256    2   0.1430   8.1800e+06
  254  262    2   0.1430   8.1800e+06
  256  257    2   0.1430   8.1800e+06
  257  258    2   0.1100   1.2100e+07
  257  259    2   0.1540   4.2166e+06
  259  260    2   0.1430   8.1800e+06
  260  261    2   0.0938   2.9551e+07
  262  263    2   0.1430   8.1800e+06
  263  264    2   0.1100   1.2100e+07
  263  265    2   0.1540   4.2166e+06
  263  277    2   0.1540   4.2166e+06
  265  266    2   0.1100   1.2100e+07
  265  267    2   0.1430   8.1800e+06
  265  269    2   0.1540   4.2166e+06
  267  268    2   0.0938   2.9551e+07
  269  270    2   0.1090   1.2300e+07
  269  271    2   0.1480   5.7300e+06
  269  274    2   0.1540   4.2166e+06
  271  272    2   0.1080   1.5003e+07
  271  273    2   0.1080   1.5003e+07
  274  275    2   0.1090   1.2300e+07
  274  276    2   0.1430   8.1800e+06
  274  282    2   0.1430   8.1800e+06
  276  277    2   0.1450   5.2319e+06
  277  278    2   0.1100   1.2100e+07
  277  279    2   0.1540   4.2166e+06
  279  280    2   0.1440   3.3758e+05
  280  281    2   0.0938   2.9551e+07
  282  283    2   0.1450   5.2319e+06
  283  284    2   0.1090   1.2300e+07
  283  285    2   0.1540   4.2166e+06
  283  297    2   0.1540   4.2166e+06
  285  286    2   0.1090   1.2300e+07
  285  287    2   0.1430   8.1800e+06
  285  289    2   0.1540   4.2166e+06
  287  288    2   0.0938   2.9551e+07
  289  290    2   0.1090   1.2300e+07
  289  291    2   0.1480   5.7300e+06
  289  294    2   0.1540   4.2166e+06
  291  292    2   0.1080   1.5003e+07
  291  293    2   0.1080   1.5003e+07
  294  295    2   0.1090   1.2300e+07
  294  296    2   0.1430   8.1800e+06
  294  302    2   0.1430   8.1800e+06
  296  297    2   0.1440   3.3758e+05
  297  298    2   0.1090   1.2300e+07
  297  299    2   0.1540   4.2166e+06
  299  300    2   0.1430   8.1800e+06
  300  301    2   0.0938   2.9551e+07
  302  303    2   0.1460   4.6913e+06
  303  304    2   0.1110   4.8697e+06
  303  305    2   0.1530   7.1500e+06
  303  317    2   0.1540   4.2166e+06
  305  306    2   0.1100   1.2100e+07
  305  307    2   0.1430   8.1800e+06
  305  309    2   0.1540   4.2166e+06
  307  308    2   0.0938   2.9551e+07
  309  310    2   0.1100   1.2100e+07
  309  311    2   0.1470   8.7100e+06
  309  314    2   0.1540   4.2166e+06
  311  312    2   0.1080   1.5003e+07
  311  313    2   0.1080   1.5003e+07
  314  315    2   0.1100   1.2100e+07
  314  316    2   0.1450   5.2319e+06
  314  322    2   0.1440   3.3758e+05
  316  317    2   0.1430   8.1800e+06
  317  318    2   0.1090   1.2300e+07
  317  319    2   0.1540   4.2166e+06
  319  320    2   0.1430   8.1800e+06
  320  321    2   0.0938   2.9551e+07
  322  323    2   0.1450   5.2319e+06
  323  324    2   0.1100   1.2100e+07
  323  325    2   0.1540   4.2166e+06
  323  337    2   0.1540   4.2166e+06
  325  326    2   0.1100   1.2100e+07
  325  327    2   0.1430   8.1800e+06
  325  329    2   0.1540   4.2166e+06
  327  328    2   0.0938   2.9551e+07
  329  330    2   0.1090   1.2300e+07
  329  331    2   0.1470   8.7100e+06
  329  334    2   0.1530   7.1500e+06
  331  332    2   0.1080   1.5003e+07
  331  333    2   0.1080   1.5003e+07
  334  335    2   0.1090   1.2300e+07
  334  336    2   0.1430   8.1800e+06
  334  342    2   0.1430   8.1800e+06
  336  337    2   0.1430   8.1800e+06
  337  338    2   0.1100   1.2100e+07
  337  339    2   0.1530   7.1500e+06
  339  340    2   0.1430   8.1800e+06
  340  341    2   0.0938   2.9551e+07
  342  343    2   0.1440   3.3758e+05
  343  344    2   0.1090   1.2300e+07
  343  345    2   0.1530   7.1500e+06
  343  357    2   0.1540   4.2166e+06
  345  346    2   0.1110   4.8697e+06
  345  347    2   0.1430   8.1800e+06
  345  349    2   0.1530   7.1500e+06
  347  348    2   0.0938   2.9551e+07
  349  350    2   0.1100   1.2100e+07
  349  351    2   0.1470   8.7100e+06
  349  354    2   0.1530   7.1500e+06
  351  352    2   0.1080   1.5003e+07
  351  353    2   0.1080   1.5003e+07
  354  355    2   0.1100   1.2100e+07
  354  356    2   0.1430   8.1800e+06
  354  362    2   0.1430   8.1800e+06
  356  357    2   0.1430   8.1800e+06
  357  358    2   0.1090   1.2300e+07
  357  359    2   0.1540   4.2166e+06
  359  360    2   0.1430   8.1800e+06
  360  361    2   0.0938   2.9551e+07
  362  363    2   0.1440   3.3758e+05
  363  364    2   0.1110   4.8697e+06
  363  365    2   0.1560   3.0819e+06
  363  377    2   0.1560   3.0819e+06
  365  366    2   0.1100   1.2100e+07
  365  367    2   0.1430   8.1800e+06
  365  369    2   0.1530   7.1500e+06
  367  368    2   0.0938   2.9551e+07
  369  370    2   0.1100   1.2100e+07
  369  371    2   0.1470   8.7100e+06
  369  374    2   0.1540   4.2166e+06
  371  372    2   0.1080   1.5003e+07
  371  373    2   0.1080   1.5003e+07
  374  375    2   0.1110   4.8697e+06
  374  376    2   0.1430   8.1800e+06
  374  382    2   0.1440   3.3758e+05
  376  377    2   0.1430   8.1800e+06
  377  378    2   0.1110   4.8697e+06
  377  379    2   0.1540   4.2166e+06
  379  380    2   0.1430   8.1800e+06
  380  381    2   0.0938   2.9551e+07
  382  383    2   0.1430   8.1800e+06
  383  384    2   0.1110   4.8697e+06
  383  385    2   0.1560   3.0819e+06
  383  397    2   0.1540   4.2166e+06
  385  386    2   0.1100   1.2100e+07
  385  387    2   0.1430   8.1800e+06
  385  389    2   0.1560   3.0819e+06
  387  388    2   0.0938   2.9551e+07
  389  390    2   0.1100   1.2100e+07
  389  391    2   0.1480   5.7300e+06
  389  394    2   0.1540   4.2166e+06
  391  392    2   0.1080   1.5003e+07
  391  393    2   0.1080   1.5003e+07
  394  395    2   0.1090   1.2300e+07
  394  396    2   0.1430   8.1800e+06
  394  402    2   0.1430   8.1800e+06
  396  397    2   0.1430   8.1800e+06
  397  398    2   0.1090   1.2300e+07
  397  399    2   0.1540   4.2166e+06
  399  400    2   0.1430   8.1800e+06
  400  401    2   0.0938   2.9551e+07
  402  403    2   0.1450   5.2319e+06
  403  404    2   0.1090   1.2300e+07
  403  405    2   0.1540   4.2166e+06
  403  419    2   0.1540   4.2166e+06
  405  406    2   0.1090   1.2300e+07
  405  407    2   0.1430   8.1800e+06
  405  409    2   0.1540   4.2166e+06
  407  408    2   0.0938   2.9551e+07
  409  410    2   0.1110   4.8697e+06
  409  411    2   0.1480   5.7300e+06
  409  414    2   0.1540   4.2166e+06
  411  412    2   0.1080   1.5003e+07
  411  413    2   0.1080   1.5003e+07
  414  415    2   0.1090   1.2300e+07
  414  416    2   0.1440   3.3758e+05
  414  418    2   0.1430   8.1800e+06
  416  417    2   0.0938   2.9551e+07
  418  419    2   0.1430   8.1800e+06
  419  420    2   0.1090   1.2300e+07
  419  421    2   0.1530   7.1500e+06
  421  422    2   0.1430   8.1800e+06
  422  423    2   0.0938   2.9551e+07
[ pairs ]
;  ai   aj  funct  ;  all 1-4 pairs but the ones excluded in GROMOS itp
    1    4    1
    1    5    1
    1   17    1
    2    6    1
    2   13    1
    2   18    1
    2   19    1
    3    7    1
    3    8    1
    3   11    1
    3   14    1
    3   15    1
    3   20    1
    3   21    1
    4    6    1
    4   13    1
    4   18    1
    4   19    1
    5    9    1
    5   12    1
    5   13    1
    5   18    1
    5   19    1
    5   22    1
    6   10    1
    6   14    1
    6   15    1
    6   17    1
    6   23    1
    7    9    1
    7   12    1
    7   13    1
    7   22    1
    8   12    1
    8   13    1
    8   22    1
    9   11    1
   11   16    1
   11   18    1
   11   19    1
   11   24    1
   11   25    1
   11   37    1
   12   14    1
   12   15    1
   12   17    1
   12   23    1
   13   20    1
   13   21    1
   13   23    1
   14   16    1
   14   18    1
   14   19    1
   14   22    1
   15   18    1
   15   19    1
   15   22    1
   16   17    1
   17   22    1
   18   20    1
   18   21    1
   22   26    1
   22   33    1
   22   38    1
   22   39    1
   23   27    1
   23   28    1
   23   31    1
   23   34    1
   23   35    1
   23   40    1
   23   41    1
   24   26    1
   24   33    1
   24   38    1
   24   39    1
   25   29    1
   25   32    1
   25   33    1
   25   38    1
   25   39    1
   25   42    1
   26   30    1
   26   34    1
   26   35    1
   26   37    1
   26   43    1
   27   29    1
   27   32    1
   27   33    1
   27   42    1
   28   32    1
   28   33    1
   28   42    1
   29   31    1
   31   36    1
   31   38    1
   31   39    1
   31   44    1
   31   45    1
   31   57    1
   32   34    1
   32   35    1
   32   37    1
   32   43    1
   33   40    1
   33   41    1
   33   43    1
   34   36    1
   34   38    1
   34   39    1
   34   42    1
   35   38    1
   35   39    1
   35   42    1
   36   37    1
   37   42    1
   38   40    1
   38   41    1
   42   46    1
   42   55    1
   42   58    1
   42   59    1
   43   47    1
   43   48    1
   43   51    1
   43   56    1
   43   60    1
   43   61    1
   43   62    1
   44   46    1
   44   55    1
   44   58    1
   44   59    1
   45   49    1
   45   52    1
   45   53    1
   45   55    1
   45   58    1
   45   59    1
   46   50    1
   46   54    1
   46   56    1
   46   57    1
   46   62    1
   47   49    1
   47   52    1
   47   53    1
   47   55    1
   48   52    1
   48   53    1
   48   55    1
   49   51    1
   51   58    1
   51   59    1
   51   63    1
   52   54    1
   52   56    1
   52   57    1
   52   62    1
   53   56    1
   53   57    1
   53   62    1
   54   55    1
   55   60    1
   55   61    1
   55   64    1
   55   65    1
   55   77    1
   56   58    1
   56   59    1
   56   63    1
   57   63    1
   58   60    1
   58   61    1
   58   62    1
   59   62    1
   62   66    1
   62   67    1
   62   69    1
   62   76    1
   62   78    1
   62   79    1
   63   68    1
   63   70    1
   63   71    1
   63   74    1
   63   80    1
   64   66    1
   64   67    1
   64   69    1
   64   76    1
   64   78    1
   64   79    1
   65   72    1
   65   73    1
   65   75    1
   65   76    1
   65   78    1
   65   79    1
   65   82    1
   66   68    1
   66   70    1
   66   71    1
   66   74    1
   66   77    1
   67   70    1
   67   71    1
   67   74    1
   67   77    1
   68   69    1
   69   77    1
   69   83    1
   70   72    1
   70   73    1
   70   75    1
   70   76    1
   70   82    1
   71   75    1
   71   76    1
   71   82    1
   72   74    1
   73   74    1
   74   78    1
   74   79    1
   74   84    1
   74   85    1
   74   97    1
   75   77    1
   75   83    1
   76   80    1
   76   83    1
   77   81    1
   77   82    1
   78   80    1
   82   86    1
   82   87    1
   82   89    1
   82   96    1
   82   98    1
   82   99    1
   83   88    1
   83   90    1
   83   91    1
   83   94    1
   83  100    1
   84   86    1
   84   87    1
   84   89    1
   84   96    1
   84   98    1
   84   99    1
   85   92    1
   85   93    1
   85   95    1
   85   96    1
   85   98    1
   85   99    1
   85  102    1
   86   88    1
   86   90    1
   86   91    1
   86   94    1
   86   97    1
   87   90    1
   87   91    1
   87   94    1
   87   97    1
   88   89    1
   89   97    1
   89  103    1
   90   92    1
   90   93    1
   90   95    1
   90   96    1
   90  102    1
   91   95    1
   91   96    1
   91  102    1
   92   94    1
   93   94    1
   94   98    1
   94   99    1
   94  104    1
   94  105    1
   94  117    1
   95   97    1
   95  103    1
   96  100    1
   96  103    1
   97  101    1
   97  102    1
   98  100    1
  102  106    1
  102  107    1
  102  109    1
  102  116    1
  102  118    1
  102  119    1
  103  108    1
  103  110    1
  103  111    1
  103  114    1
  103  120    1
  104  106    1
  104  107    1
  104  109    1
  104  116    1
  104  118    1
  104  119    1
  105  112    1
  105  113    1
  105  115    1
  105  116    1
  105  118    1
  105  119    1
  105  122    1
  106  108    1
  106  110    1
  106  111    1
  106  114    1
  106  117    1
  107  110    1
  107  111    1
  107  114    1
  107  117    1
  108  109    1
  109  117    1
  109  123    1
  110  112    1
  110  113    1
  110  115    1
  110  116    1
  110  122    1
  111  115    1
  111  116    1
  111  122    1
  112  114    1
  113  114    1
  114  118    1
  114  119    1
  114  124    1
  114  125    1
  114  137    1
  115  117    1
  115  123    1
  116  120    1
  116  123    1
  117  121    1
  117  122    1
  118  120    1
  122  126    1
  122  127    1
  122  129    1
  122  136    1
  122  138    1
  122  139    1
  123  128    1
  123  130    1
  123  131    1
  123  134    1
  123  140    1
  124  126    1
  124  127    1
  124  129    1
  124  136    1
  124  138    1
  124  139    1
  125  132    1
  125  133    1
  125  135    1
  125  136    1
  125  138    1
  125  139    1
  125  142    1
  126  128    1
  126  130    1
  126  131    1
  126  134    1
  126  137    1
  127  130    1
  127  131    1
  127  134    1
  127  137    1
  128  129    1
  129  137    1
  129  143    1
  130  132    1
  130  133    1
  130  135    1
  130  136    1
  130  142    1
  131  135    1
  131  136    1
  131  142    1
  132  134    1
  133  134    1
  134  138    1
  134  139    1
  134  144    1
  134  145    1
  134  157    1
  135  137    1
  135  143    1
  136  140    1
  136  143    1
  137  141    1
  137  142    1
  138  140    1
  142  146    1
  142  147    1
  142  149    1
  142  156    1
  142  158    1
  142  159    1
  143  148    1
  143  150    1
  143  151    1
  143  154    1
  143  160    1
  144  146    1
  144  147    1
  144  149    1
  144  156    1
  144  158    1
  144  159    1
  145  152    1
  145  153    1
  145  155    1
  145  156    1
  145  158    1
  145  159    1
  145  162    1
  146  148    1
  146  150    1
  146  151    1
  146  154    1
  146  157    1
  147  150    1
  147  151    1
  147  154    1
  147  157    1
  148  149    1
  149  157    1
  149  163    1
  150  152    1
  150  153    1
  150  155    1
  150  156    1
  150  162    1
  151  155    1
  151  156    1
  151  162    1
  152  154    1
  153  154    1
  154  158    1
  154  159    1
  154  164    1
  154  165    1
  154  177    1
  155  157    1
  155  163    1
  156  160    1
  156  163    1
  157  161    1
  157  162    1
  158  160    1
  162  166    1
  162  167    1
  162  169    1
  162  176    1
  162  178    1
  162  179    1
  163  168    1
  163  170    1
  163  171    1
  163  174    1
  163  180    1
  164  166    1
  164  167    1
  164  169    1
  164  176    1
  164  178    1
  164  179    1
  165  172    1
  165  173    1
  165  175    1
  165  176    1
  165  178    1
  165  179    1
  165  182    1
  166  168    1
  166  170    1
  166  171    1
  166  174    1
  166  177    1
  167  170    1
  167  171    1
  167  174    1
  167  177    1
  168  169    1
  169  177    1
  169  183    1
  170  172    1
  170  173    1
  170  175    1
  170  176    1
  170  182    1
  171  175    1
  171  176    1
  171  182    1
  172  174    1
  173  174    1
  174  178    1
  174  179    1
  174  184    1
  174  185    1
  174  197    1
  175  177    1
  175  183    1
  176  180    1
  176  183    1
  177  181    1
  177  182    1
  178  180    1
  182  186    1
  182  187    1
  182  189    1
  182  196    1
  182  198    1
  182  199    1
  183  188    1
  183  190    1
  183  191    1
  183  194    1
  183  200    1
  184  186    1
  184  187    1
  184  189    1
  184  196    1
  184  198    1
  184  199    1
  185  192    1
  185  193    1
  185  195    1
  185  196    1
  185  198    1
  185  199    1
  185  202    1
  186  188    1
  186  190    1
  186  191    1
  186  194    1
  186  197    1
  187  190    1
  187  191    1
  187  194    1
  187  197    1
  188  189    1
  189  197    1
  189  203    1
  190  192    1
  190  193    1
  190  195    1
  190  196    1
  190  202    1
  191  195    1
  191  196    1
  191  202    1
  192  194    1
  193  194    1
  194  198    1
  194  199    1
  194  204    1
  194  205    1
  194  217    1
  195  197    1
  195  203    1
  196  200    1
  196  203    1
  197  201    1
  197  202    1
  198  200    1
  202  206    1
  202  207    1
  202  209    1
  202  216    1
  202  218    1
  202  219    1
  203  208    1
  203  210    1
  203  211    1
  203  214    1
  203  220    1
  204  206    1
  204  207    1
  204  209    1
  204  216    1
  204  218    1
  204  219    1
  205  212    1
  205  213    1
  205  215    1
  205  216    1
  205  218    1
  205  219    1
  205  222    1
  206  208    1
  206  210    1
  206  211    1
  206  214    1
  206  217    1
  207  210    1
  207  211    1
  207  214    1
  207  217    1
  208  209    1
  209  217    1
  209  223    1
  210  212    1
  210  213    1
  210  215    1
  210  216    1
  210  222    1
  211  215    1
  211  216    1
  211  222    1
  212  214    1
  213  214    1
  214  218    1
  214  219    1
  214  224    1
  214  225    1
  214  237    1
  215  217    1
  215  223    1
  216  220    1
  216  223    1
  217  221    1
  217  222    1
  218  220    1
  222  226    1
  222  227    1
  222  229    1
  222  236    1
  222  238    1
  222  239    1
  223  228    1
  223  230    1
  223  231    1
  223  234    1
  223  240    1
  224  226    1
  224  227    1
  224  229    1
  224  236    1
  224  238    1
  224  239    1
  225  232    1
  225  233    1
  225  235    1
  225  236    1
  225  238    1
  225  239    1
  225  242    1
  226  228    1
  226  230    1
  226  231    1
  226  234    1
  226  237    1
  227  230    1
  227  231    1
  227  234    1
  227  237    1
  228  229    1
  229  237    1
  229  243    1
  230  232    1
  230  233    1
  230  235    1
  230  236    1
  230  242    1
  231  235    1
  231  236    1
  231  242    1
  232  234    1
  233  234    1
  234  238    1
  234  239    1
  234  244    1
  234  245    1
  234  257    1
  235  237    1
  235  243    1
  236  240    1
  236  243    1
  237  241    1
  237  242    1
  238  240    1
  242  246    1
  242  247    1
  242  249    1
  242  256    1
  242  258    1
  242  259    1
  243  248    1
  243  250    1
  243  251    1
  243  254    1
  243  260    1
  244  246    1
  244  247    1
  244  249    1
  244  256    1
  244  258    1
  244  259    1
  245  252    1
  245  253    1
  245  255    1
  245  256    1
  245  258    1
  245  259    1
  245  262    1
  246  248    1
  246  250    1
  246  251    1
  246  254    1
  246  257    1
  247  250    1
  247  251    1
  247  254    1
  247  257    1
  248  249    1
  249  257    1
  249  263    1
  250  252    1
  250  253    1
  250  255    1
  250  256    1
  250  262    1
  251  255    1
  251  256    1
  251  262    1
  252  254    1
  253  254    1
  254  258    1
  254  259    1
  254  264    1
  254  265    1
  254  277    1
  255  257    1
  255  263    1
  256  260    1
  256  263    1
  257  261    1
  257  262    1
  258  260    1
  262  266    1
  262  267    1
  262  269    1
  262  276    1
  262  278    1
  262  279    1
  263  268    1
  263  270    1
  263  271    1
  263  274    1
  263  280    1
  264  266    1
  264  267    1
  264  269    1
  264  276    1
  264  278    1
  264  279    1
  265  272    1
  265  273    1
  265  275    1
  265  276    1
  265  278    1
  265  279    1
  265  282    1
  266  268    1
  266  270    1
  266  271    1
  266  274    1
  266  277    1
  267  270    1
  267  271    1
  267  274    1
  267  277    1
  268  269    1
  269  277    1
  269  283    1
  270  272    1
  270  273    1
  270  275    1
  270  276    1
  270  282    1
  271  275    1
  271  276    1
  271  282    1
  272  274    1
  273  274    1
  274  278    1
  274  279    1
  274  284    1
  274  285    1
  274  297    1
  275  277    1
  275  283    1
  276  280    1
  276  283    1
  277  281    1
  277  282    1
  278  280    1
  282  286    1
  282  287    1
  282  289    1
  282  296    1
  282  298    1
  282  299    1
  283  288    1
  283  290    1
  283  291    1
  283  294    1
  283  300    1
  284  286    1
  284  287    1
  284  289    1
  284  296    1
  284  298    1
  284  299    1
  285  292    1
  285  293    1
  285  295    1
  285  296    1
  285  298    1
  285  299    1
  285  302    1
  286  288    1
  286  290    1
  286  291    1
  286  294    1
  286  297    1
  287  290    1
  287  291    1
  287  294    1
  287  297    1
  288  289    1
  289  297    1
  289  303    1
  290  292    1
  290  293    1
  290  295    1
  290  296    1
  290  302    1
  291  295    1
  291  296    1
  291  302    1
  292  294    1
  293  294    1
  294  298    1
  294  299    1
  294  304    1
  294  305    1
  294  317    1
  295  297    1
  295  303    1
  296  300    1
  296  303    1
  297  301    1
  297  302    1
  298  300    1
  302  306    1
  302  307    1
  302  309    1
  302  316    1
  302  318    1
  302  319    1
  303  308    1
  303  310    1
  303  311    1
  303  314    1
  303  320    1
  304  306    1
  304  307    1
  304  309    1
  304  316    1
  304  318    1
  304  319    1
  305  312    1
  305  313    1
  305  315    1
  305  316    1
  305  318    1
  305  319    1
  305  322    1
  306  308    1
  306  310    1
  306  311    1
  306  314    1
  306  317    1
  307  310    1
  307  311    1
  307  314    1
  307  317    1
  308  309    1
  309  317    1
  309  323    1
  310  312    1
  310  313    1
  310  315    1
  310  316    1
  310  322    1
  311  315    1
  311  316    1
  311  322    1
  312  314    1
  313  314    1
  314  318    1
  314  319    1
  314  324    1
  314  325    1
  314  337    1
  315  317    1
  315  323    1
  316  320    1
  316  323    1
  317  321    1
  317  322    1
  318  320    1
  322  326    1
  322  327    1
  322  329    1
  322  336    1
  322  338    1
  322  339    1
  323  328    1
  323  330    1
  323  331    1
  323  334    1
  323  340    1
  324  326    1
  324  327    1
  324  329    1
  324  336    1
  324  338    1
  324  339    1
  325  332    1
  325  333    1
  325  335    1
  325  336    1
  325  338    1
  325  339    1
  325  342    1
  326  328    1
  326  330    1
  326  331    1
  326  334    1
  326  337    1
  327  330    1
  327  331    1
  327  334    1
  327  337    1
  328  329    1
  329  337    1
  329  343    1
  330  332    1
  330  333    1
  330  335    1
  330  336    1
  330  342    1
  331  335    1
  331  336    1
  331  342    1
  332  334    1
  333  334    1
  334  338    1
  334  339    1
  334  344    1
  334  345    1
  334  357    1
  335  337    1
  335  343    1
  336  340    1
  336  343    1
  337  341    1
  337  342    1
  338  340    1
  342  346    1
  342  347    1
  342  349    1
  342  356    1
  342  358    1
  342  359    1
  343  348    1
  343  350    1
  343  351    1
  343  354    1
  343  360    1
  344  346    1
  344  347    1
  344  349    1
  344  356    1
  344  358    1
  344  359    1
  345  352    1
  345  353    1
  345  355    1
  345  356    1
  345  358    1
  345  359    1
  345  362    1
  346  348    1
  346  350    1
  346  351    1
  346  354    1
  346  357    1
  347  350    1
  347  351    1
  347  354    1
  347  357    1
  348  349    1
  349  357    1
  349  363    1
  350  352    1
  350  353    1
  350  355    1
  350  356    1
  350  362    1
  351  355    1
  351  356    1
  351  362    1
  352  354    1
  353  354    1
  354  358    1
  354  359    1
  354  364    1
  354  365    1
  354  377    1
  355  357    1
  355  363    1
  356  360    1
  356  363    1
  357  361    1
  357  362    1
  358  360    1
  362  366    1
  362  367    1
  362  369    1
  362  376    1
  362  378    1
  362  379    1
  363  368    1
  363  370    1
  363  371    1
  363  374    1
  363  380    1
  364  366    1
  364  367    1
  364  369    1
  364  376    1
  364  378    1
  364  379    1
  365  372    1
  365  373    1
  365  375    1
  365  376    1
  365  378    1
  365  379    1
  365  382    1
  366  368    1
  366  370    1
  366  371    1
  366  374    1
  366  377    1
  367  370    1
  367  371    1
  367  374    1
  367  377    1
  368  369    1
  369  377    1
  369  383    1
  370  372    1
  370  373    1
  370  375    1
  370  376    1
  370  382    1
  371  375    1
  371  376    1
  371  382    1
  372  374    1
  373  374    1
  374  378    1
  374  379    1
  374  384    1
  374  385    1
  374  397    1
  375  377    1
  375  383    1
  376  380    1
  376  383    1
  377  381    1
  377  382    1
  378  380    1
  382  386    1
  382  387    1
  382  389    1
  382  396    1
  382  398    1
  382  399    1
  383  388    1
  383  390    1
  383  391    1
  383  394    1
  383  400    1
  384  386    1
  384  387    1
  384  389    1
  384  396    1
  384  398    1
  384  399    1
  385  392    1
  385  393    1
  385  395    1
  385  396    1
  385  398    1
  385  399    1
  385  402    1
  386  388    1
  386  390    1
  386  391    1
  386  394    1
  386  397    1
  387  390    1
  387  391    1
  387  394    1
  387  397    1
  388  389    1
  389  397    1
  389  403    1
  390  392    1
  390  393    1
  390  395    1
  390  396    1
  390  402    1
  391  395    1
  391  396    1
  391  402    1
  392  394    1
  393  394    1
  394  398    1
  394  399    1
  394  404    1
  394  405    1
  394  419    1
  395  397    1
  395  403    1
  396  400    1
  396  403    1
  397  401    1
  397  402    1
  398  400    1
  402  406    1
  402  407    1
  402  409    1
  402  418    1
  402  420    1
  402  421    1
  403  408    1
  403  410    1
  403  411    1
  403  414    1
  403  422    1
  404  406    1
  404  407    1
  404  409    1
  404  418    1
  404  420    1
  404  421    1
  405  412    1
  405  413    1
  405  415    1
  405  416    1
  405  418    1
  405  420    1
  405  421    1
  406  408    1
  406  410    1
  406  411    1
  406  414    1
  406  419    1
  407  410    1
  407  411    1
  407  414    1
  407  419    1
  408  409    1
  409  417    1
  409  419    1
  410  412    1
  410  413    1
  410  415    1
  410  416    1
  410  418    1
  411  415    1
  411  416    1
  411  418    1
  412  414    1
  413  414    1
  414  420    1
  414  421    1
  415  417    1
  415  419    1
  416  419    1
  417  418    1
  418  422    1
  419  423    1
  420  422    1
[ angles ]
;  ai   aj   ak  funct   angle     fc
    1    2    3    2    109.50   450.00
    2    3    4    2    109.00  1680.51
    2    3    5    2    106.75   503.00
    2    3   17    2    111.00   530.00
    4    3    5    2    111.00   530.00
    4    3   17    2    111.40   532.00
    5    3   17    2    109.50   520.00
    3    5    6    2    109.50   450.00
    5    6    7    2    110.00   285.00
    5    6    8    2    109.50   520.00
    5    6   11    2    109.50   520.00
    7    6    8    2    109.00  1680.51
    7    6   11    2    109.60   450.00
    8    6   11    2    109.50   520.00
    6    8    9    2    109.50   520.00
    8    9   10    2    109.50   450.00
    6   11   12    2    109.00  1680.51
    6   11   13    2    109.50   520.00
    6   11   22    2    104.00   490.00
   12   11   13    2    109.50   285.00
   12   11   22    2    111.00   530.00
   13   11   22    2    115.00   610.00
   11   13   14    2    111.00   530.00
   11   13   15    2    111.00   530.00
   11   13   17    2    109.50   520.00
   14   13   15    2    107.60   507.00
   14   13   17    2    110.30   524.00
   15   13   17    2    109.50   520.00
   13   15   16    2    109.50   450.00
    3   17   13    2    109.50   520.00
    3   17   18    2    111.00   530.00
    3   17   19    2    111.00   530.00
   13   17   18    2    107.57   484.00
   13   17   19    2    108.00   465.00
   18   17   19    2    108.53   443.00
   17   19   20    2    109.50   425.00
   17   19   21    2    109.50   425.00
   20   19   21    2    110.30   524.00
   11   22   23    2    109.50   450.00
   22   23   24    2    111.00   530.00
   22   23   25    2    109.00  1680.51
   22   23   37    2    109.50   520.00
   24   23   25    2    112.00  4899.70
   24   23   37    2    110.30   524.00
   25   23   37    2    109.50   520.00
   23   25   26    2    109.50   450.00
   25   26   27    2    108.53   443.00
   25   26   28    2    109.50   520.00
   25   26   31    2    111.00   530.00
   27   26   28    2    107.60   507.00
   27   26   31    2    109.50   285.00
   28   26   31    2    111.00   530.00
   26   28   29    2    111.00   530.00
   28   29   30    2    109.50   450.00
   26   31   32    2    107.00  2726.16
   26   31   33    2    109.50   520.00
   26   31   42    2    111.00   530.00
   32   31   33    2    111.00   530.00
   32   31   42    2    109.00  1680.51
   33   31   42    2    111.00   530.00
   31   33   34    2    110.30   524.00
   31   33   35    2    111.00   530.00
   31   33   37    2    109.50   520.00
   34   33   35    2    109.50   285.00
   34   33   37    2    110.30   524.00
   35   33   37    2    109.50   520.00
   33   35   36    2    109.50   450.00
   23   37   33    2    109.50   520.00
   23   37   38    2    109.60   450.00
   23   37   39    2    109.50   520.00
   33   37   38    2    109.00  1680.51
   33   37   39    2    111.00   530.00
   38   37   39    2    107.00  2726.16
   37   39   40    2    109.50   425.00
   37   39   41    2    109.50   425.00
   40   39   41    2    109.50   285.00
   31   42   43    2    109.50   450.00
   42   43   44    2    112.00  4899.70
   42   43   45    2    112.00  4899.70
   42   43   57    2    109.50   520.00
   44   43   45    2    106.00  1733.55
   44   43   57    2    108.00   465.00
   45   43   57    2    111.00   530.00
   43   45   46    2    109.50   450.00
   45   46   47    2    108.00   465.00
   45   46   48    2    109.50   520.00
   45   46   51    2    111.00   530.00
   47   46   48    2    106.00  1733.55
   47   46   51    2    109.50   285.00
   48   46   51    2    111.00   530.00
   46   48   49    2    111.00   530.00
   48   49   50    2    109.50   450.00
   46   51   52    2    110.00   285.00
   46   51   53    2    109.50   520.00
   46   51   55    2    109.50   520.00
   52   51   53    2    110.00   285.00
   52   51   55    2    109.00  1680.51
   53   51   55    2    111.00   530.00
   51   53   54    2    109.50   450.00
   51   55   56    2    104.00   490.00
   51   55   57    2    111.00   530.00
   51   55   62    2    117.00   635.00
   56   55   57    2    104.00   490.00
   56   55   62    2    101.00  2076.33
   57   55   62    2    115.00   610.00
   43   57   55    2    109.50   520.00
   43   57   58    2    108.53   443.00
   43   57   59    2    109.50   520.00
   55   57   58    2    120.00   505.00
   55   57   59    2    111.00   530.00
   58   57   59    2    106.00  1733.55
   57   59   60    2    109.50   425.00
   57   59   61    2    109.50   425.00
   60   59   61    2    110.00   285.00
   55   62   63    2    119.00  2211.40
   62   63   64    2    110.30   524.00
   62   63   65    2    117.00   635.00
   62   63   77    2    104.00   490.00
   64   63   65    2    108.53   443.00
   64   63   77    2    107.00  2726.16
   65   63   77    2    109.50   520.00
   63   65   66    2    110.30   524.00
   63   65   67    2    111.00   530.00
   63   65   69    2    109.50   520.00
   66   65   67    2    109.60   450.00
   66   65   69    2    108.53   443.00
   67   65   69    2    109.50   520.00
   65   67   68    2    109.50   450.00
   65   69   70    2    110.30   524.00
   65   69   71    2    115.00   610.00
   65   69   74    2    111.00   530.00
   70   69   71    2    108.53   443.00
   70   69   74    2    106.00  1733.55
   71   69   74    2    108.00   465.00
   69   71   72    2    109.50   425.00
   69   71   73    2    109.50   425.00
   72   71   73    2    111.00   530.00
   69   74   75    2    108.53   443.00
   69   74   76    2    109.50   520.00
   69   74   82    2    109.50   520.00
   75   74   76    2    112.00  4899.70
   75   74   82    2    110.30   524.00
   76   74   82    2    109.50   285.00
   74   76   77    2    109.50   450.00
   63   77   76    2    111.00   530.00
   63   77   78    2    109.00  1680.51
   63   77   79    2    109.50   520.00
   76   77   78    2    110.00   285.00
   76   77   79    2    109.50   520.00
   78   77   79    2    106.00  1733.55
   77   79   80    2    109.50   520.00
   79   80   81    2    109.50   450.00
   74   82   83    2    109.50   450.00
   82   83   84    2    107.57   484.00
   82   83   85    2    109.50   520.00
   82   83   97    2    117.00   635.00
   84   83   85    2    106.75   503.00
   84   83   97    2    109.50   285.00
   85   83   97    2    109.50   520.00
   83   85   86    2    110.30   524.00
   83   85   87    2    109.50   520.00
   83   85   89    2    111.00   530.00
   86   85   87    2    106.75   503.00
   86   85   89    2    111.00   530.00
   87   85   89    2    109.50   520.00
   85   87   88    2    109.50   450.00
   85   89   90    2    108.00   465.00
   85   89   91    2    111.00   530.00
   85   89   94    2    109.50   520.00
   90   89   91    2    106.75   503.00
   90   89   94    2    109.00  1680.51
   91   89   94    2    111.00   530.00
   89   91   92    2    109.50   425.00
   89   91   93    2    109.50   425.00
   92   91   93    2    110.30   524.00
   89   94   95    2    112.00  4899.70
   89   94   96    2    109.50   520.00
   89   94  102    2    109.50   520.00
   95   94   96    2    108.53   443.00
   95   94  102    2    111.40   532.00
   96   94  102    2    110.30   524.00
   94   96   97    2    109.50   450.00
   83   97   96    2    111.00   530.00
   83   97   98    2    109.60   450.00
   83   97   99    2    111.00   530.00
   96   97   98    2    109.00  1680.51
   96   97   99    2    109.50   520.00
   98   97   99    2    107.57   484.00
   97   99  100    2    109.50   520.00
   99  100  101    2    109.50   450.00
   94  102  103    2    109.50   450.00
  102  103  104    2    108.53   443.00
  102  103  105    2    115.00   610.00
  102  103  117    2    109.50   520.00
  104  103  105    2    108.53   443.00
  104  103  117    2    108.53   443.00
  105  103  117    2    109.50   520.00
  103  105  106    2    111.30   632.00
  103  105  107    2    109.50   520.00
  103  105  109    2    111.00   530.00
  106  105  107    2    106.00  1733.55
  106  105  109    2    111.40   532.00
  107  105  109    2    109.50   520.00
  105  107  108    2    109.50   450.00
  105  109  110    2    106.00  1733.55
  105  109  111    2    115.00   610.00
  105  109  114    2    109.50   520.00
  110  109  111    2    106.00  1733.55
  110  109  114    2    109.50   285.00
  111  109  114    2    111.00   530.00
  109  111  112    2    109.50   425.00
  109  111  113    2    109.50   425.00
  112  111  113    2    109.60   450.00
  109  114  115    2    109.00  1680.51
  109  114  116    2    111.00   530.00
  109  114  122    2    103.00   420.00
  115  114  116    2    109.60   450.00
  115  114  122    2    111.00   530.00
  116  114  122    2    113.00   545.00
  114  116  117    2    109.50   450.00
  103  117  116    2    111.00   530.00
  103  117  118    2    108.53   443.00
  103  117  119    2    111.00   530.00
  116  117  118    2    108.00   465.00
  116  117  119    2    109.50   520.00
  118  117  119    2    108.00   465.00
  117  119  120    2    109.50   520.00
  119  120  121    2    109.50   450.00
  114  122  123    2    116.00   465.00
  122  123  124    2    109.50   285.00
  122  123  125    2    109.50   520.00
  122  123  137    2    115.00   610.00
  124  123  125    2    107.60   507.00
  124  123  137    2    112.00  4899.70
  125  123  137    2    109.50   520.00
  123  125  126    2    110.30   524.00
  123  125  127    2    109.50   520.00
  123  125  129    2    111.00   530.00
  126  125  127    2    108.00   465.00
  126  125  129    2    109.00  1680.51
  127  125  129    2    111.00   530.00
  125  127  128    2    109.50   450.00
  125  129  130    2    109.00  1680.51
  125  129  131    2    109.50   520.00
  125  129  134    2    111.00   530.00
  130  129  131    2    108.00   465.00
  130  129  134    2    109.00  1680.51
  131  129  134    2    109.50   520.00
  129  131  132    2    109.50   425.00
  129  131  133    2    109.50   425.00
  132  131  133    2    109.00  1680.51
  129  134  135    2    107.00  2726.16
  129  134  136    2    111.00   530.00
  129  134  142    2    111.00   530.00
  135  134  136    2    108.53   443.00
  135  134  142    2    109.50   285.00
  136  134  142    2    111.00   530.00
  134  136  137    2    109.50   450.00
  123  137  136    2    115.00   610.00
  123  137  138    2    111.00   530.00
  123  137  139    2    111.00   530.00
  136  137  138    2    104.00   490.00
  136  137  139    2    111.00   530.00
  138  137  139    2    106.00  1733.55
  137  139  140    2    109.50   520.00
  139  140  141    2    109.50   450.00
  134  142  143    2    115.00    50.00
  142  143  144    2    111.30   632.00
  142  143  145    2    111.00   530.00
  142  143  157    2    109.50   520.00
  144  143  145    2    109.60   450.00
  144  143  157    2    109.00  1680.51
  145  143  157    2    109.50   520.00
  143  145  146    2    110.00   285.00
  143  145  147    2    109.50   520.00
  143  145  149    2    109.50   520.00
  146  145  147    2    107.57   484.00
  146  145  149    2    112.00  4899.70
  147  145  149    2    111.00   530.00
  145  147  148    2    109.50   450.00
  145  149  150    2    109.00  1680.51
  145  149  151    2    111.00   530.00
  145  149  154    2    109.50   520.00
  150  149  151    2    110.00   285.00
  150  149  154    2    109.60   450.00
  151  149  154    2    109.50   520.00
  149  151  152    2    109.50   425.00
  149  151  153    2    109.50   425.00
  152  151  153    2    108.53   443.00
  149  154  155    2    107.57   484.00
  149  154  156    2    111.00   530.00
  149  154  162    2    109.50   520.00
  155  154  156    2    110.30   524.00
  155  154  162    2    113.00   545.00
  156  154  162    2    107.57   484.00
  154  156  157    2    109.50   450.00
  143  157  156    2    111.00   530.00
  143  157  158    2    109.00  1680.51
  143  157  159    2    111.00   530.00
  156  157  158    2    110.00   285.00
  156  157  159    2    109.50   520.00
  158  157  159    2    106.75   503.00
  157  159  160    2    109.50   520.00
  159  160  161    2    109.50   450.00
  154  162  163    2    109.50   450.00
  162  163  164    2    111.40   532.00
  162  163  165    2    111.00   530.00
  162  163  177    2    109.50   520.00
  164  163  165    2    109.00  1680.51
  164  163  177    2    108.00   465.00
  165  163  177    2    109.50   520.00
  163  165  166    2    109.00  1680.51
  163  165  167    2    109.50   520.00
  163  165  169    2    109.50   520.00
  166  165  167    2    110.00   285.00
  166  165  169    2    109.60   450.00
  167  165  169    2    109.50   520.00
  165  167  168    2    109.50   450.00
  165  169  170    2    108.53   443.00
  165  169  171    2    109.50   520.00
  165  169  174    2    109.50   520.00
  170  169  171    2    108.00   465.00
  170  169  174    2    110.00   285.00
  171  169  174    2    111.00   530.00
  169  171  172    2    109.50   425.00
  169  171  173    2    109.50   425.00
  172  171  173    2    109.00  1680.51
  169  174  175    2    109.50   285.00
  169  174  176    2    109.50   520.00
  169  174  182    2    109.50   520.00
  175  174  176    2    111.30   632.00
  175  174  182    2    110.00   285.00
  176  174  182    2    109.60   450.00
  174  176  177    2    109.50   450.00
  163  177  176    2    109.50   520.00
  163  177  178    2    111.00   530.00
  163  177  179    2    109.50   520.00
  176  177  178    2    110.30   524.00
  176  177  179    2    109.50   520.00
  178  177  179    2    107.00  2726.16
  177  179  180    2    109.50   520.00
  179  180  181    2    109.50   450.00
  174  182  183    2    109.50   450.00
  182  183  184    2    110.30   524.00
  182  183  185    2    111.00   530.00
  182  183  197    2    111.00   530.00
  184  183  185    2    109.00  1680.51
  184  183  197    2    106.00  1733.55
  185  183  197    2    109.50   520.00
  183  185  186    2    108.00   465.00
  183  185  187    2    109.50   520.00
  183  185  189    2    111.00   530.00
  186  185  187    2    111.00   530.00
  186  185  189    2    106.75   503.00
  187  185  189    2    115.00   610.00
  185  187  188    2    109.50   450.00
  185  189  190    2    109.00  1680.51
  185  189  191    2    115.00   610.00
  185  189  194    2    109.50   520.00
  190  189  191    2    104.00   490.00
  190  189  194    2    108.53   443.00
  191  189  194    2    111.00   530.00
  189  191  192    2    109.50   425.00
  189  191  193    2    109.50   425.00
  192  191  193    2    109.50   285.00
  189  194  195    2    106.75   503.00
  189  194  196    2    111.00   530.00
  189  194  202    2    111.00   530.00
  195  194  196    2    107.00  2726.16
  195  194  202    2    110.30   524.00
  196  194  202    2    108.53   443.00
  194  196  197    2    109.50   450.00
  183  197  196    2    111.00   530.00
  183  197  198    2    109.50   285.00
  183  197  199    2    111.00   530.00
  196  197  198    2    108.53   443.00
  196  197  199    2    109.50   520.00
  198  197  199    2    107.00  2726.16
  197  199  200    2    111.00   530.00
  199  200  201    2    109.50   450.00
  194  202  203    2    109.50   450.00
  202  203  204    2    110.00   285.00
  202  203  205    2    111.00   530.00
  202  203  217    2    111.00   530.00
  204  203  205    2    112.00  4899.70
  204  203  217    2    106.75   503.00
  205  203  217    2    109.50   520.00
  203  205  206    2    108.00   465.00
  203  205  207    2    111.00   530.00
  203  205  209    2    109.50   520.00
  206  205  207    2    106.75   503.00
  206  205  209    2    110.30   524.00
  207  205  209    2    109.50   520.00
  205  207  208    2    109.50   450.00
  205  209  210    2    109.50   285.00
  205  209  211    2    111.00   530.00
  205  209  214    2    109.50   520.00
  210  209  211    2    110.00   285.00
  210  209  214    2    109.00  1680.51
  211  209  214    2    109.50   520.00
  209  211  212    2    109.50   425.00
  209  211  213    2    109.50   425.00
  212  211  213    2    109.00  1680.51
  209  214  215    2    109.00  1680.51
  209  214  216    2    111.00   530.00
  209  214  222    2    109.50   520.00
  215  214  216    2    110.30   524.00
  215  214  222    2    110.30   524.00
  216  214  222    2    109.60   450.00
  214  216  217    2    109.50   450.00
  203  217  216    2    109.50   520.00
  203  217  218    2    111.40   532.00
  203  217  219    2    109.50   520.00
  216  217  218    2    110.30   524.00
  216  217  219    2    109.50   520.00
  218  217  219    2    110.00   285.00
  217  219  220    2    111.00   530.00
  219  220  221    2    109.50   450.00
  214  222  223    2    109.50   450.00
  222  223  224    2    109.60   450.00
  222  223  225    2    111.00   530.00
  222  223  237    2    109.50   520.00
  224  223  225    2    109.50   285.00
  224  223  237    2    107.00  2726.16
  225  223  237    2    111.00   530.00
  223  225  226    2    107.57   484.00
  223  225  227    2    109.50   520.00
  223  225  229    2    109.50   520.00
  226  225  227    2    110.00   285.00
  226  225  229    2    109.60   450.00
  227  225  229    2    111.00   530.00
  225  227  228    2    109.50   450.00
  225  229  230    2    109.00  1680.51
  225  229  231    2    111.00   530.00
  225  229  234    2    109.50   520.00
  230  229  231    2    107.60   507.00
  230  229  234    2    110.00   285.00
  231  229  234    2    109.50   520.00
  229  231  232    2    109.50   425.00
  229  231  233    2    109.50   425.00
  232  231  233    2    111.00   530.00
  229  234  235    2    110.00   285.00
  229  234  236    2    109.50   520.00
  229  234  242    2    109.50   520.00
  235  234  236    2    111.00   530.00
  235  234  242    2    109.60   450.00
  236  234  242    2    113.00   545.00
  234  236  237    2    109.50   450.00
  223  237  236    2    111.00   530.00
  223  237  238    2    108.53   443.00
  223  237  239    2    109.50   520.00
  236  237  238    2    109.60   450.00
  236  237  239    2    109.50   520.00
  238  237  239    2    108.00   465.00
  237  239  240    2    109.50   520.00
  239  240  241    2    109.50   450.00
  234  242  243    2    115.00    50.00
  242  243  244    2    108.53   443.00
  242  243  245    2    109.50   520.00
  242  243  257    2    115.00   610.00
  244  243  245    2    111.00   530.00
  244  243  257    2    110.30   524.00
  245  243  257    2    109.50   520.00
  243  245  246    2    107.57   484.00
  243  245  247    2    111.00   530.00
  243  245  249    2    109.50   520.00
  246  245  247    2    109.00  1680.51
  246  245  249    2    111.00   530.00
  247  245  249    2    109.50   520.00
  245  247  248    2    109.50   450.00
  245  249  250    2    110.30   524.00
  245  249  251    2    108.00   465.00
  245  249  254    2    111.00   530.00
  250  249  251    2    109.00  1680.51
  250  249  254    2    108.00   465.00
  251  249  254    2    111.00   530.00
  249  251  252    2    109.50   425.00
  249  251  253    2    109.50   425.00
  252  251  253    2    109.60   450.00
  249  254  255    2    107.60   507.00
  249  254  256    2    109.50   520.00
  249  254  262    2    109.50   520.00
  255  254  256    2    112.00  4899.70
  255  254  262    2    108.53   443.00
  256  254  262    2    111.40   532.00
  254  256  257    2    109.50   450.00
  243  257  256    2    115.00   610.00
  243  257  258    2    108.53   443.00
  243  257  259    2    111.00   530.00
  256  257  258    2    109.50   285.00
  256  257  259    2    109.50   520.00
  258  257  259    2    104.00   490.00
  257  259  260    2    109.50   520.00
  259  260  261    2    109.50   450.00
  254  262  263    2    115.00    50.00
  262  263  264    2    111.00   530.00
  262  263  265    2    111.00   530.00
  262  263  277    2    109.50   520.00
  264  263  265    2    107.60   507.00
  264  263  277    2    109.00  1680.51
  265  263  277    2    109.50   520.00
  263  265  266    2    109.00  1680.51
  263  265  267    2    109.50   520.00
  263  265  269    2    111.00   530.00
  266  265  267    2    110.30   524.00
  266  265  269    2    110.30   524.00
  267  265  269    2    109.50   520.00
  265  267  268    2    109.50   450.00
  265  269  270    2    108.00   465.00
  265  269  271    2    111.00   530.00
  265  269  274    2    111.00   530.00
  270  269  271    2    108.00   465.00
  270  269  274    2    108.00   465.00
  271  269  274    2    109.50   520.00
  269  271  272    2    109.50   425.00
  269  271  273    2    109.50   425.00
  272  271  273    2    110.00   285.00
  269  274  275    2    110.00   285.00
  269  274  276    2    109.50   520.00
  269  274  282    2    109.50   520.00
  275  274  276    2    112.00  4899.70
  275  274  282    2    109.50   285.00
  276  274  282    2    109.50   285.00
  274  276  277    2    109.50   450.00
  263  277  276    2    111.00   530.00
  263  277  278    2    109.60   450.00
  263  277  279    2    111.00   530.00
  276  277  278    2    109.60   450.00
  276  277  279    2    109.50   520.00
  278  277  279    2    108.53   443.00
  277  279  280    2    111.00   530.00
  279  280  281    2    109.50   450.00
  274  282  283    2    116.00   465.00
  282  283  284    2    104.00   490.00
  282  283  285    2    117.00   635.00
  282  283  297    2    115.00   610.00
  284  283  285    2    106.00  1733.55
  284  283  297    2    107.00  2726.16
  285  283  297    2    109.50   520.00
  283  285  286    2    109.00  1680.51
  283  285  287    2    109.50   520.00
  283  285  289    2    109.50   520.00
  286  285  287    2    109.50   285.00
  286  285  289    2    108.00   465.00
  287  285  289    2    111.00   530.00
  285  287  288    2    109.50   450.00
  285  289  290    2    109.50   285.00
  285  289  291    2    109.50   520.00
  285  289  294    2    109.50   520.00
  290  289  291    2    106.75   503.00
  290  289  294    2    110.00   285.00
  291  289  294    2    111.00   530.00
  289  291  292    2    109.50   425.00
  289  291  293    2    109.50   425.00
  292  291  293    2    110.30   524.00
  289  294  295    2    108.53   443.00
  289  294  296    2    109.50   520.00
  289  294  302    2    109.50   520.00
  295  294  296    2    112.00  4899.70
  295  294  302    2    111.40   532.00
  296  294  302    2    108.53   443.00
  294  296  297    2    109.50   450.00
  283  297  296    2    109.50   520.00
  283  297  298    2    110.30   524.00
  283  297  299    2    111.00   530.00
  296  297  298    2    109.60   450.00
  296  297  299    2    109.50   520.00
  298  297  299    2    111.00   530.00
  297  299  300    2    109.50   520.00
  299  300  301    2    109.50   450.00
  294  302  303    2    116.00   465.00
  302  303  304    2    106.00  1733.55
  302  303  305    2    115.00   610.00
  302  303  317    2    115.00   610.00
  304  303  305    2    107.00  2726.16
  304  303  317    2    106.00  1733.55
  305  303  317    2    109.50   520.00
  303  305  306    2    110.00   285.00
  303  305  307    2    111.00   530.00
  303  305  309    2    109.50   520.00
  306  305  307    2    107.60   507.00
  306  305  309    2    109.00  1680.51
  307  305  309    2    111.00   530.00
  305  307  308    2    109.50   450.00
  305  309  310    2    109.00  1680.51
  305  309  311    2    111.00   530.00
  305  309  314    2    109.50   520.00
  310  309  311    2    109.00  1680.51
  310  309  314    2    110.00   285.00
  311  309  314    2    109.50   520.00
  309  311  312    2    109.50   425.00
  309  311  313    2    109.50   425.00
  312  311  313    2    110.00   285.00
  309  314  315    2    108.00   465.00
  309  314  316    2    111.00   530.00
  309  314  322    2    109.50   520.00
  315  314  316    2    109.50   285.00
  315  314  322    2    110.00   285.00
  316  314  322    2    111.00   530.00
  314  316  317    2    109.50   450.00
  303  317  316    2    109.50   520.00
  303  317  318    2    109.00  1680.51
  303  317  319    2    111.00   530.00
  316  317  318    2    110.00   285.00
  316  317  319    2    109.50   520.00
  318  317  319    2    110.00   285.00
  317  319  320    2    109.50   520.00
  319  320  321    2    109.50   450.00
  314  322  323    2    115.00    50.00
  322  323  324    2    103.00   420.00
  322  323  325    2    115.00   610.00
  322  323  337    2    115.00   610.00
  324  323  325    2    107.57   484.00
  324  323  337    2    106.00  1733.55
  325  323  337    2    109.50   520.00
  323  325  326    2    112.00  4899.70
  323  325  327    2    109.50   520.00
  323  325  329    2    109.50   520.00
  326  325  327    2    109.60   450.00
  326  325  329    2    108.53   443.00
  327  325  329    2    109.50   520.00
  325  327  328    2    109.50   450.00
  325  329  330    2    109.00  1680.51
  325  329  331    2    111.00   530.00
  325  329  334    2    109.50   520.00
  330  329  331    2    108.53   443.00
  330  329  334    2    109.50   285.00
  331  329  334    2    111.00   530.00
  329  331  332    2    109.50   425.00
  329  331  333    2    109.50   425.00
  332  331  333    2    109.00  1680.51
  329  334  335    2    108.53   443.00
  329  334  336    2    111.00   530.00
  329  334  342    2    109.50   520.00
  335  334  336    2    111.00   530.00
  335  334  342    2    111.00   530.00
  336  334  342    2    108.53   443.00
  334  336  337    2    109.50   450.00
  323  337  336    2    109.50   520.00
  323  337  338    2    112.00  4899.70
  323  337  339    2    111.00   530.00
  336  337  338    2    108.00   465.00
  336  337  339    2    109.50   520.00
  338  337  339    2    109.50   285.00
  337  339  340    2    109.50   520.00
  339  340  341    2    109.50   450.00
  334  342  343    2    109.50   450.00
  342  343  344    2    112.00  4899.70
  342  343  345    2    109.50   520.00
  342  343  357    2    109.50   520.00
  344  343  345    2    110.30   524.00
  344  343  357    2    107.00  2726.16
  345  343  357    2    111.00   530.00
  343  345  346    2    109.00  1680.51
  343  345  347    2    111.00   530.00
  343  345  349    2    109.50   520.00
  346  345  347    2    109.50   285.00
  346  345  349    2    108.00   465.00
  347  345  349    2    109.50   520.00
  345  347  348    2    109.50   450.00
  345  349  350    2    111.00   530.00
  345  349  351    2    109.50   520.00
  345  349  354    2    109.50   520.00
  350  349  351    2    107.57   484.00
  350  349  354    2    108.00   465.00
  351  349  354    2    111.00   530.00
  349  351  352    2    109.50   425.00
  349  351  353    2    109.50   425.00
  352  351  353    2    109.00  1680.51
  349  354  355    2    110.30   524.00
  349  354  356    2    109.50   520.00
  349  354  362    2    111.00   530.00
  355  354  356    2    109.00  1680.51
  355  354  362    2    106.00  1733.55
  356  354  362    2    112.00  4899.70
  354  356  357    2    109.50   450.00
  343  357  356    2    109.50   520.00
  343  357  358    2    109.00  1680.51
  343  357  359    2    109.50   520.00
  356  357  358    2    110.30   524.00
  356  357  359    2    109.50   520.00
  358  357  359    2    109.50   285.00
  357  359  360    2    111.00   530.00
  359  360  361    2    109.50   450.00
  354  362  363    2    109.50   450.00
  362  363  364    2    110.30   524.00
  362  363  365    2    109.50   520.00
  362  363  377    2    109.50   520.00
  364  363  365    2    112.00  4899.70
  364  363  377    2    108.53   443.00
  365  363  377    2    109.50   520.00
  363  365  366    2    110.30   524.00
  363  365  367    2    109.50   520.00
  363  365  369    2    109.50   520.00
  366  365  367    2    109.60   450.00
  366  365  369    2    109.60   450.00
  367  365  369    2    111.00   530.00
  365  367  368    2    109.50   450.00
  365  369  370    2    106.00  1733.55
  365  369  371    2    111.00   530.00
  365  369  374    2    109.50   520.00
  370  369  371    2    106.75   503.00
  370  369  374    2    110.30   524.00
  371  369  374    2    111.00   530.00
  369  371  372    2    109.50   425.00
  369  371  373    2    109.50   425.00
  372  371  373    2    110.30   524.00
  369  374  375    2    104.00   490.00
  369  374  376    2    111.00   530.00
  369  374  382    2    111.00   530.00
  375  374  376    2    110.30   524.00
  375  374  382    2    110.00   285.00
  376  374  382    2    109.00  1680.51
  374  376  377    2    109.50   450.00
  363  377  376    2    111.00   530.00
  363  377  378    2    109.60   450.00
  363  377  379    2    111.00   530.00
  376  377  378    2    109.50   285.00
  376  377  379    2    109.50   520.00
  378  377  379    2    107.00  2726.16
  377  379  380    2    109.50   520.00
  379  380  381    2    109.50   450.00
  374  382  383    2    109.50   450.00
  382  383  384    2    110.30   524.00
  382  383  385    2    115.00   610.00
  382  383  397    2    109.50   520.00
  384  383  385    2    109.00  1680.51
  384  383  397    2    108.00   465.00
  385  383  397    2    109.50   520.00
  383  385  386    2    108.53   443.00
  383  385  387    2    111.00   530.00
  383  385  389    2    109.50   520.00
  386  385  387    2    111.00   530.00
  386  385  389    2    111.00   530.00
  387  385  389    2    109.50   520.00
  385  387  388    2    109.50   450.00
  385  389  390    2    109.50   285.00
  385  389  391    2    109.50   520.00
  385  389  394    2    111.00   530.00
  390  389  391    2    107.60   507.00
  390  389  394    2    106.00  1733.55
  391  389  394    2    111.00   530.00
  389  391  392    2    109.50   425.00
  389  391  393    2    109.50   425.00
  392  391  393    2    109.60   450.00
  389  394  395    2    109.00  1680.51
  389  394  396    2    111.00   530.00
  389  394  402    2    109.50   520.00
  395  394  396    2    111.40   532.00
  395  394  402    2    110.30   524.00
  396  394  402    2    107.60   507.00
  394  396  397    2    109.50   450.00
  383  397  396    2    111.00   530.00
  383  397  398    2    108.53   443.00
  383  397  399    2    111.00   530.00
  396  397  398    2    110.00   285.00
  396  397  399    2    109.50   520.00
  398  397  399    2    109.00  1680.51
  397  399  400    2    109.50   520.00
  399  400  401    2    109.50   450.00
  394  402  403    2    109.50   450.00
  402  403  404    2    113.00   545.00
  402  403  405    2    111.00   530.00
  402  403  419    2    109.50   520.00
  404  403  405    2    110.00   285.00
  404  403  419    2    107.00  2726.16
  405  403  419    2    109.50   520.00
  403  405  406    2    109.00  1680.51
  403  405  407    2    109.50   520.00
  403  405  409    2    109.50   520.00
  406  405  407    2    111.00   530.00
  406  405  409    2    110.00   285.00
  407  405  409    2    109.50   520.00
  405  407  408    2    109.50   450.00
  405  409  410    2    107.57   484.00
  405  409  411    2    108.00   465.00
  405  409  414    2    111.00   530.00
  410  409  411    2    108.53   443.00
  410  409  414    2    109.00  1680.51
  411  409  414    2    115.00   610.00
  409  411  412    2    109.50   425.00
  409  411  413    2    109.50   425.00
  412  411  413    2    110.30   524.00
  409  414  415    2    111.00   530.00
  409  414  416    2    111.00   530.00
  409  414  418    2    109.50   520.00
  415  414  416    2    109.60   450.00
  415  414  418    2    110.30   524.00
  416  414  418    2    104.00   490.00
  414  416  417    2    109.50   450.00
  414  418  419    2    109.50   450.00
  403  419  418    2    111.00   530.00
  403  419  420    2    110.00   285.00
  403  419  421    2    111.00   530.00
  418  419  420    2    108.53   443.00
  418  419  421    2    109.50   520.00
  420  419  421    2    108.00   465.00
  419  421  422    2    109.50   520.00
  421  422  423    2    109.50   450.00
[ dihedrals ]
; GROMOS improper dihedrals
;  ai   aj   ak   al  funct   angle     fc
  383  382  385  397    2     35.26   334.72
  385  387  383  389    2     35.26   334.72
  389  385  391  394    2     35.26   334.72
  394  396  402  389    2     35.26   334.72
  397  396  383  399    2     35.26   334.72
  403  405  402  419    2     35.26   334.72
  374  382  376  369    2     35.26   334.72
  405  403  407  409    2     35.26   334.72
  369  371  374  365    2     35.26   334.72
  419  403  418  421    2     35.26   334.72
  365  367  369  363    2     35.26   334.72
  409  411  405  414    2     35.26   334.72
  363  362  365  377    2     35.26   334.72
  377  363  376  379    2     35.26   334.72
  414  416  418  409    2     35.26   334.72
  323  325  322  337    2     35.26   334.72
  325  323  327  329    2     35.26   334.72
  329  331  325  334    2     35.26   334.72
  334  342  336  329    2     35.26   334.72
  337  323  336  339    2     35.26   334.72
  343  342  345  357    2     35.26   334.72
  314  322  316  309    2     35.26   334.72
  345  347  343  349    2     35.26   334.72
  309  314  311  305    2     35.26   334.72
  357  356  343  359    2     35.26   334.72
  305  307  309  303    2     35.26   334.72
  349  345  351  354    2     35.26   334.72
  303  305  302  317    2     35.26   334.72
  317  303  316  319    2     35.26   334.72
  354  356  362  349    2     35.26   334.72
  263  265  262  277    2     35.26   334.72
  265  263  267  269    2     35.26   334.72
  269  271  265  274    2     35.26   334.72
  274  282  276  269    2     35.26   334.72
  277  263  276  279    2     35.26   334.72
  283  282  285  297    2     35.26   334.72
  254  256  262  249    2     35.26   334.72
  285  287  283  289    2     35.26   334.72
  249  254  251  245    2     35.26   334.72
  297  296  283  299    2     35.26   334.72
  245  247  249  243    2     35.26   334.72
  289  285  291  294    2     35.26   334.72
  243  242  245  257    2     35.26   334.72
  257  256  243  259    2     35.26   334.72
  294  296  302  289    2     35.26   334.72
  203  202  205  217    2     35.26   334.72
  205  207  203  209    2     35.26   334.72
  209  205  211  214    2     35.26   334.72
  214  216  222  209    2     35.26   334.72
  217  216  203  219    2     35.26   334.72
  223  225  222  237    2     35.26   334.72
  194  202  196  189    2     35.26   334.72
  225  227  223  229    2     35.26   334.72
  189  191  194  185    2     35.26   334.72
  237  223  236  239    2     35.26   334.72
  185  187  189  183    2     35.26   334.72
  229  231  225  234    2     35.26   334.72
  183  185  182  197    2     35.26   334.72
  197  183  196  199    2     35.26   334.72
  234  242  236  229    2     35.26   334.72
  143  142  145  157    2     35.26   334.72
  145  147  143  149    2     35.26   334.72
  149  151  145  154    2     35.26   334.72
  154  162  156  149    2     35.26   334.72
  157  143  156  159    2     35.26   334.72
  163  162  165  177    2     35.26   334.72
  134  142  136  129    2     35.26   334.72
  165  167  163  169    2     35.26   334.72
  129  131  134  125    2     35.26   334.72
  177  176  163  179    2     35.26   334.72
  125  127  129  123    2     35.26   334.72
  169  165  171  174    2     35.26   334.72
  123  122  125  137    2     35.26   334.72
  137  136  123  139    2     35.26   334.72
  174  176  182  169    2     35.26   334.72
   83   82   85   97    2     35.26   334.72
   85   87   83   89    2     35.26   334.72
   89   85   91   94    2     35.26   334.72
   94   96  102   89    2     35.26   334.72
   97   96   83   99    2     35.26   334.72
  103  102  105  117    2     35.26   334.72
   74   82   76   69    2     35.26   334.72
  105  107  103  109    2     35.26   334.72
   69   74   71   65    2     35.26   334.72
  117  116  103  119    2     35.26   334.72
   65   67   69   63    2     35.26   334.72
  109  105  111  114    2     35.26   334.72
   63   77   65   62    2     35.26   334.72
   77   63   76   79    2     35.26   334.72
  114  116  122  109    2     35.26   334.72
   31   33   42   26    2     35.26   334.72
   33   31   35   37    2     35.26   334.72
   37   39   33   23    2     35.26   334.72
   23   22   25   37    2     35.26   334.72
   26   31   25   28    2     35.26   334.72
   11   22   13    6    2     35.26   334.72
   43   45   42   57    2     35.26   334.72
   13   15   11   17    2     35.26   334.72
   57   59   43   55    2     35.26   334.72
    6    5   11    8    2     35.26   334.72
   55   57   62   51    2     35.26   334.72
   17   13   19    3    2     35.26   334.72
   51   55   53   46    2     35.26   334.72
   46   51   45   48    2     35.26   334.72
    3    5    2   17    2     35.26   334.72
[ dihedrals ]
;  ai   aj   ak   al  funct    ph0      cp     mult
    1    2    3    5    1      0.00     1.26    3
    2    3    5    6    1      0.00     1.26    3
    3    5    6   11    1      0.00     1.26    3
    5    3   17   19    1      0.00     5.92    3
    5    6    8    9    1      0.00     5.92    3
    5    6   11   22    1      0.00     5.92    3
    6    8    9   10    1      0.00     1.26    3
   11   13   15   16    1      0.00     1.26    3
   11   22   23   25    1      0.00     1.26    3
   13   11   22   23    1      0.00     1.26    3
   13   17   19   20    1      0.00     3.77    6
   15   13   17   19    1      0.00     5.92    3
   22   11   13   15    1      0.00     5.92    3
   22   23   25   26    1      0.00     1.26    3
   23   25   26   31    1      0.00     1.26    3
   25   23   37   39    1      0.00     5.92    3
   25   26   28   29    1      0.00     5.92    3
   25   26   31   42    1      0.00     5.92    3
   26   28   29   30    1      0.00     1.26    3
   31   33   35   36    1      0.00     1.26    3
   31   42   43   45    1    180.00     1.00    3
   33   31   42   43    1      0.00     1.26    3
   33   37   39   40    1    180.00     1.00    6
   35   33   37   39    1      0.00     5.92    3
   42   31   33   35    1      0.00     5.92    3
   42   43   45   46    1      0.00     1.26    3
   42   43   57   59    1    180.00     1.00    3
   43   45   46   51    1      0.00     1.26    3
   43   57   59   60    1    180.00     1.00    6
   45   46   48   49    1      0.00     5.92    3
   45   46   51   53    1    180.00     1.00    3
   46   48   49   50    1      0.00     1.26    3
   53   51   55   62    1      0.00     5.92    3
   55   51   53   54    1      0.00     1.26    3
   55   62   63   65    1      0.00     1.26    3
   57   55   62   63    1      0.00     1.26    3
   62   55   57   59    1      0.00     5.92    3
   65   63   77   76    1      0.00     5.92    3
   67   65   69   71    1      0.00     5.92    3
   69   65   67   68    1      0.00     1.26    3
   71   69   74   82    1      0.00     5.92    3
   74   69   71   72    1    180.00     1.00    6
   74   76   77   63    1      0.00     1.26    3
   74   82   83   85    1      0.00     1.26    3
   76   74   82   83    1      0.00     1.26    3
   76   77   79   80    1      0.00     5.92    3
   77   63   65   67    1      0.00     5.92    3
   77   79   80   81    1      0.00     1.26    3
   82   74   76   77    1      0.00     1.26    3
   82   83   85   87    1      0.00     5.92    3
   82   83   97   96    1    180.00     1.00    3
   83   85   87   88    1      0.00     1.26    3
   85   89   91   92    1    180.00     1.00    6
   87   85   89   91    1      0.00     5.92    3
   91   89   94   96    1    180.00     1.00    3
   94   96   97   83    1      0.00     1.26    3
   94  102  103  105    1      0.00     1.26    3
   96   94  102  103    1      0.00     1.26    3
   96   97   99  100    1      0.00     5.92    3
   97   99  100  101    1      0.00     1.26    3
  102   94   96   97    1      0.00     1.26    3
  102  103  105  107    1      0.00     5.92    3
  102  103  117  116    1    180.00     1.00    3
  103  105  107  108    1      0.00     1.26    3
  105  109  111  112    1    180.00     1.00    6
  107  105  109  111    1      0.00     5.92    3
  111  109  114  122    1    180.00     1.00    3
  114  116  117  103    1      0.00     1.26    3
  114  122  123  125    1      0.00     1.26    3
  116  114  122  123    1      0.00     1.26    3
  116  117  119  120    1      0.00     5.92    3
  117  119  120  121    1      0.00     1.26    3
  122  114  116  117    1      0.00     1.26    3
  122  123  125  127    1      0.00     5.92    3
  122  123  137  136    1    180.00     1.00    3
  127  125  129  131    1      0.00     5.92    3
  129  125  127  128    1      0.00     1.26    3
  131  129  134  142    1    180.00     1.00    3
  134  129  131  132    1    180.00     1.00    6
  134  136  137  123    1      0.00     1.26    3
  134  142  143  145    1      0.00     1.26    3
  136  134  142  143    1      0.00     1.26    3
  136  137  139  140    1      0.00     5.92    3
  137  139  140  141    1      0.00     1.26    3
  142  134  136  137    1      0.00     1.26    3
  142  143  145  147    1      0.00     5.92    3
  142  143  157  156    1      0.00     5.92    3
  143  145  147  148    1      0.00     1.26    3
  145  149  151  152    1    180.00     1.00    6
  147  145  149  151    1      0.00     5.92    3
  151  149  154  156    1      0.00     5.92    3
  154  156  157  143    1      0.00     1.26    3
  154  162  163  165    1      0.00     1.26    3
  156  154  162  163    1      0.00     1.26    3
  156  157  159  160    1      0.00     5.92    3
  157  159  160  161    1      0.00     1.26    3
  162  154  156  157    1      0.00     1.26    3
  162  163  165  167    1      0.00     5.92    3
  162  163  177  176    1      0.00     5.92    3
  163  165  167  168    1      0.00     1.26    3
  165  169  171  172    1    180.00     1.00    6
  167  165  169  171    1      0.00     5.92    3
  171  169  174  182    1      0.00     5.92    3
  174  176  177  163    1      0.00     1.26    3
  174  182  183  185    1      0.00     1.26    3
  176  174  182  183    1      0.00     1.26    3
  176  177  179  180    1      0.00     5.92    3
  177  179  180  181    1      0.00     1.26    3
  182  174  176  177    1      0.00     1.26    3
  182  183  185  187    1      0.00     5.92    3
  182  183  197  196    1      0.00     5.92    3
  187  185  189  191    1      0.00     5.92    3
  189  185  187  188    1      0.00     1.26    3
  191  189  194  202    1      0.00     5.92    3
  194  189  191  192    1    180.00     1.00    6
  194  196  197  183    1      0.00     1.26    3
  194  202  203  205    1    180.00     1.00    3
  196  194  202  203    1      0.00     1.26    3
  196  197  199  200    1      0.00     5.92    3
  197  199  200  201    1      0.00     1.26    3
  202  194  196  197    1    180.00     1.00    3
  202  203  205  207    1      0.00     5.92    3
  202  203  217  216    1      0.00     5.92    3
  203  205  207  208    1      0.00     1.26    3
  205  209  211  212    1      0.00     3.77    6
  207  205  209  211    1      0.00     5.92    3
  211  209  214  216    1      0.00     5.92    3
  214  216  217  203    1      0.00     1.26    3
  214  222  223  225    1      0.00     1.26    3
  216  214  222  223    1      0.00     1.26    3
  216  217  219  220    1      0.00     5.92    3
  217  219  220  221    1      0.00     1.26    3
  222  214  216  217    1      0.00     1.26    3
  222  223  225  227    1      0.00     5.92    3
  222  223  237  236    1      0.00     5.92    3
  223  225  227  228    1      0.00     1.26    3
  225  229  231  232    1    180.00     1.00    6
  227  225  229  231    1      0.00     5.92    3
  231  229  234  242    1      0.00     5.92    3
  234  236  237  223    1      0.00     1.26    3
  234  242  243  245    1      0.00     1.26    3
  236  234  242  243    1      0.00     1.26    3
  236  237  239  240    1      0.00     5.92    3
  237  239  240  241    1      0.00     1.26    3
  242  234  236  237    1      0.00     1.26    3
  242  243  245  247    1      0.00     5.92    3
  242  243  257  256    1      0.00     5.92    3
  247  245  249  251    1      0.00     5.92    3
  249  245  247  248    1      0.00     1.26    3
  251  249  254  262    1      0.00     5.92    3
  254  249  251  252    1    180.00     1.00    6
  254  256  257  243    1      0.00     1.26    3
  254  262  263  265    1      0.00     1.26    3
  256  254  262  263    1      0.00     1.26    3
  256  257  259  260    1      0.00     5.92    3
  257  259  260  261    1      0.00     1.26    3
  262  254  256  257    1      0.00     1.26    3
  262  263  265  267    1      0.00     5.92    3
  262  263  277  276    1      0.00     5.92    3
  263  265  267  268    1      0.00     1.26    3
  265  269  271  272    1    180.00     1.00    6
  267  265  269  271    1      0.00     5.92    3
  271  269  274  276    1      0.00     5.92    3
  274  276  277  263    1      0.00     1.26    3
  274  282  283  285    1      0.00     1.26    3
  276  274  282  283    1      0.00     1.26    3
  276  277  279  280    1      0.00     5.92    3
  277  279  280  281    1      0.00     1.26    3
  282  274  276  277    1      0.00     1.26    3
  282  283  285  287    1      0.00     5.92    3
  282  283  297  296    1      0.00     5.92    3
  283  285  287  288    1      0.00     1.26    3
  285  289  291  292    1    180.00     1.00    6
  287  285  289  291    1      0.00     5.92    3
  291  289  294  302    1      0.00     5.92    3
  294  296  297  283    1      0.00     1.26    3
  294  302  303  305    1      0.00     1.26    3
  296  294  302  303    1      0.00     1.26    3
  296  297  299  300    1      0.00     5.92    3
  297  299  300  301    1      0.00     1.26    3
  302  294  296  297    1      0.00     1.26    3
  302  303  305  307    1      0.00     5.92    3
  302  303  317  316    1      0.00     5.92    3
  307  305  309  311    1      0.00     5.92    3
  309  305  307  308    1      0.00     1.26    3
  311  309  314  322    1      0.00     5.92    3
  314  309  311  312    1    180.00     1.00    6
  314  316  317  303    1      0.00     1.26    3
  314  322  323  325    1      0.00     1.26    3
  316  314  322  323    1      0.00     1.26    3
  316  317  319  320    1      0.00     5.92    3
  317  319  320  321    1      0.00     1.26    3
  322  314  316  317    1      0.00     1.26    3
  322  323  325  327    1      0.00     5.92    3
  322  323  337  336    1      0.00     5.92    3
  323  325  327  328    1      0.00     1.26    3
  325  329  331  332    1    180.00     1.00    6
  327  325  329  331    1      0.00     5.92    3
  331  329  334  336    1      0.00     5.92    3
  334  336  337  323    1      0.00     1.26    3
  334  342  343  345    1    180.00     1.00    3
  336  334  342  343    1      0.00     1.26    3
  336  337  339  340    1      0.00     5.92    3
  337  339  340  341    1      0.00     1.26    3
  342  334  336  337    1      0.00     1.26    3
  342  343  345  347    1      0.00     5.92    3
  342  343  357  356    1      0.00     5.92    3
  343  345  347  348    1      0.00     1.26    3
  345  349  351  352    1    180.00     1.00    6
  347  345  349  351    1      0.00     5.92    3
  351  349  354  362    1      0.00     5.92    3
  354  356  357  343    1      0.00     1.26    3
  354  362  363  365    1      0.00     1.26    3
  356  354  362  363    1      0.00     1.26    3
  356  357  359  360    1      0.00     5.92    3
  357  359  360  361    1      0.00     1.26    3
  362  354  356  357    1      0.00     1.26    3
  362  363  365  367    1      0.00     5.92    3
  362  363  377  376    1    180.00     1.00    3
  367  365  369  371    1      0.00     5.92    3
  369  365  367  368    1      0.00     1.26    3
  371  369  374  382    1    180.00     1.00    3
  374  369  371  372    1    180.00     1.00    6
  374  376  377  363    1      0.00     1.26    3
  374  382  383  385    1      0.00     1.26    3
  376  374  382  383    1      0.00     1.26    3
  376  377  379  380    1      0.00     5.92    3
  377  379  380  381    1      0.00     1.26    3
  382  374  376  377    1      0.00     1.26    3
  382  383  385  387    1      0.00     5.92    3
  382  383  397  396    1      0.00     5.92    3
  383  385  387  388    1      0.00     1.26    3
  385  389  391  392    1    180.00     1.00    6
  387  385  389  391    1      0.00     5.92    3
  391  389  394  396    1      0.00     5.92    3
  394  396  397  383    1      0.00     1.26    3
  394  402  403  405    1    180.00     1.00    3
  396  394  402  403    1      0.00     1.26    3
  396  397  399  400    1      0.00     5.92    3
  397  399  400  401    1      0.00     1.26    3
  402  394  396  397    1      0.00     1.26    3
  402  403  405  407    1      0.00     5.92    3
  402  403  419  418    1      0.00     5.92    3
  403  405  407  408    1      0.00     1.26    3
  405  409  411  412    1    180.00     1.00    6
  407  405  409  411    1      0.00     5.92    3
  411  409  414  418    1      0.00     5.92    3
  414  418  419  403    1      0.00     1.26    3
  416  414  418  419    1      0.00     1.26    3
  418  414  416  417    1      0.00     1.26    3
  418  419  421  422    1      0.00     5.92    3
  419  421  422  423    1      0.00     1.26    3
[ exclusions ]
;  ai   aj  funct  ;  GROMOS 1-4 exclusions
