UNITED ATOM STRUCTURE FOR MOLECULE UNL
  423
    0CHTO  H203    1  -2.680   0.611  -1.214
    0CHTO   O82    2  -2.737   0.581  -1.144
    0CHTO  C123    3  -2.672   0.591  -1.018
    0CHTO  H227    4  -2.645   0.697  -1.000
    0CHTO   O77    5  -2.766   0.545  -0.919
    0CHTO  C118    6  -2.716   0.560  -0.786
    0CHTO  H222    7  -2.691   0.666  -0.766
    0CHTO  C125    8  -2.823   0.514  -0.683
    0CHTO   O84    9  -2.940   0.594  -0.701
    0CHTO  H205   10  -3.010   0.565  -0.644
    0CHTO  C114   11  -2.590   0.474  -0.766
    0CHTO  H218   12  -2.618   0.368  -0.777
    0CHTO  C116   13  -2.483   0.510  -0.873
    0CHTO  H220   14  -2.444   0.612  -0.856
    0CHTO   O79   15  -2.373   0.418  -0.867
    0CHTO  H201   16  -2.308   0.438  -0.933
    0CHTO  C120   17  -2.548   0.499  -1.013
    0CHTO  H224   18  -2.577   0.393  -1.028
    0CHTO   N21   19  -2.448   0.535  -1.113
    0CHTO  H211   20  -2.433   0.642  -1.115
    0CHTO  H212   21  -2.477   0.499  -1.211
    0CHTO   O75   22  -2.548   0.502  -0.633
    0CHTO  C112   23  -2.441   0.416  -0.586
    0CHTO  H216   24  -2.348   0.437  -0.641
    0CHTO   O73   25  -2.483   0.279  -0.599
    0CHTO  C113   26  -2.386   0.189  -0.546
    0CHTO  H217   27  -2.289   0.207  -0.596
    0CHTO  C124   28  -2.430   0.046  -0.579
    0CHTO   O83   29  -2.462   0.035  -0.719
    0CHTO  H204   30  -2.494  -0.053  -0.738
    0CHTO  C109   31  -2.368   0.209  -0.393
    0CHTO  H213   32  -2.468   0.194  -0.347
    0CHTO  C110   33  -2.320   0.354  -0.374
    0CHTO  H214   34  -2.222   0.368  -0.421
    0CHTO   O78   35  -2.310   0.385  -0.235
    0CHTO  H200   36  -2.283   0.475  -0.222
    0CHTO  C111   37  -2.424   0.448  -0.436
    0CHTO  H215   38  -2.521   0.435  -0.384
    0CHTO   N19   39  -2.385   0.589  -0.422
    0CHTO  H207   40  -2.465   0.652  -0.457
    0CHTO  H208   41  -2.295   0.609  -0.478
    0CHTO   O74   42  -2.276   0.112  -0.337
    0CHTO  C115   43  -2.288   0.097  -0.194
    0CHTO  H219   44  -2.345   0.178  -0.150
    0CHTO   O76   45  -2.359  -0.023  -0.159
    0CHTO  C122   46  -2.306  -0.138  -0.228
    0CHTO  H226   47  -2.338  -0.132  -0.332
    0CHTO  C126   48  -2.369  -0.268  -0.170
    0CHTO   O85   49  -2.331  -0.293  -0.034
    0CHTO  H206   50  -2.352  -0.220   0.022
    0CHTO  C121   51  -2.150  -0.142  -0.222
    0CHTO  H225   52  -2.116  -0.245  -0.199
    0CHTO   O81   53  -2.099  -0.102  -0.350
    0CHTO  H202   54  -2.125  -0.161  -0.419
    0CHTO  C119   55  -2.101  -0.046  -0.111
    0CHTO  H223   56  -2.155  -0.079  -0.022
    0CHTO  C117   57  -2.146   0.100  -0.133
    0CHTO  H221   58  -2.081   0.160  -0.198
    0CHTO   N20   59  -2.151   0.172  -0.005
    0CHTO  H209   60  -2.054   0.169   0.043
    0CHTO  H210   61  -2.226   0.131   0.061
    0CHTO   O80   62  -1.964  -0.059  -0.069
    0CHTO  C103   63  -1.861  -0.072  -0.170
    0CHTO  H190   64  -1.882  -0.157  -0.236
    0CHTO  C101   65  -1.832   0.053  -0.259
    0CHTO  H188   66  -1.816   0.142  -0.197
    0CHTO   O68   67  -1.940   0.077  -0.352
    0CHTO  H168   68  -1.930   0.161  -0.397
    0CHTO   C99   69  -1.701   0.026  -0.340
    0CHTO  H186   70  -1.715  -0.062  -0.406
    0CHTO   N17   71  -1.660   0.140  -0.424
    0CHTO  H174   72  -1.657   0.230  -0.364
    0CHTO  H175   73  -1.727   0.153  -0.508
    0CHTO   C97   74  -1.584  -0.008  -0.247
    0CHTO  H184   75  -1.568   0.077  -0.179
    0CHTO   O64   76  -1.619  -0.127  -0.175
    0CHTO  C104   77  -1.732  -0.106  -0.090
    0CHTO  H191   78  -1.711  -0.025  -0.020
    0CHTO  C108   79  -1.756  -0.231  -0.006
    0CHTO   O71   80  -1.634  -0.265   0.062
    0CHTO  H171   81  -1.646  -0.345   0.111
    0CHTO   O62   82  -1.467  -0.032  -0.326
    0CHTO   C91   83  -1.343  -0.013  -0.255
    0CHTO  H178   84  -1.340   0.092  -0.222
    0CHTO   C92   85  -1.229  -0.030  -0.356
    0CHTO  H179   86  -1.244   0.037  -0.443
    0CHTO   O66   87  -1.107   0.011  -0.294
    0CHTO  H166   88  -1.034   0.008  -0.355
    0CHTO   C93   89  -1.216  -0.177  -0.402
    0CHTO  H180   90  -1.115  -0.191  -0.444
    0CHTO   N16   91  -1.312  -0.210  -0.509
    0CHTO  H172   92  -1.413  -0.203  -0.472
    0CHTO  H173   93  -1.292  -0.310  -0.545
    0CHTO   C94   94  -1.234  -0.272  -0.280
    0CHTO  H181   95  -1.334  -0.313  -0.275
    0CHTO   O61   96  -1.208  -0.197  -0.160
    0CHTO   C95   97  -1.316  -0.106  -0.134
    0CHTO  H182   98  -1.406  -0.163  -0.110
    0CHTO  C106   99  -1.280  -0.023  -0.008
    0CHTO   O69  100  -1.263  -0.116   0.100
    0CHTO  H169  101  -1.247  -0.069   0.182
    0CHTO   O63  102  -1.134  -0.375  -0.297
    0CHTO   C96  103  -1.148  -0.484  -0.204
    0CHTO  H183  104  -1.252  -0.518  -0.207
    0CHTO   C98  105  -1.113  -0.448  -0.058
    0CHTO  H185  106  -1.181  -0.371  -0.018
    0CHTO   O67  107  -1.134  -0.565   0.021
    0CHTO  H167  108  -1.120  -0.543   0.112
    0CHTO  C102  109  -0.964  -0.403  -0.047
    0CHTO  H189  110  -0.935  -0.418   0.058
    0CHTO   N18  111  -0.943  -0.260  -0.076
    0CHTO  H176  112  -1.005  -0.199  -0.011
    0CHTO  H177  113  -0.964  -0.235  -0.179
    0CHTO  C105  114  -0.876  -0.491  -0.137
    0CHTO  H192  115  -0.855  -0.438  -0.231
    0CHTO   O65  116  -0.942  -0.615  -0.167
    0CHTO  C100  117  -1.056  -0.598  -0.252
    0CHTO  H187  118  -1.019  -0.573  -0.353
    0CHTO  C107  119  -1.132  -0.732  -0.261
    0CHTO   O70  120  -1.196  -0.759  -0.137
    0CHTO  H170  121  -1.250  -0.837  -0.141
    0CHTO   O57  122  -0.756  -0.508  -0.059
    0CHTO   C85  123  -0.660  -0.600  -0.112
    0CHTO  H157  124  -0.703  -0.702  -0.113
    0CHTO   C83  125  -0.542  -0.601  -0.013
    0CHTO  H155  126  -0.577  -0.625   0.089
    0CHTO   O56  127  -0.485  -0.469  -0.009
    0CHTO  H135  128  -0.549  -0.405   0.019
    0CHTO   C81  129  -0.437  -0.704  -0.056
    0CHTO  H153  130  -0.475  -0.805  -0.036
    0CHTO   N14  131  -0.313  -0.686   0.022
    0CHTO  H141  132  -0.335  -0.703   0.126
    0CHTO  H142  133  -0.275  -0.585   0.010
    0CHTO   C79  134  -0.406  -0.691  -0.207
    0CHTO  H151  135  -0.458  -0.774  -0.258
    0CHTO   O52  136  -0.458  -0.566  -0.259
    0CHTO   C86  137  -0.603  -0.559  -0.251
    0CHTO  H158  138  -0.625  -0.453  -0.272
    0CHTO   C90  139  -0.668  -0.640  -0.364
    0CHTO   O60  140  -0.590  -0.622  -0.483
    0CHTO  H138  141  -0.628  -0.673  -0.554
    0CHTO   O50  142  -0.265  -0.701  -0.231
    0CHTO   C73  143  -0.226  -0.690  -0.369
    0CHTO  H145  144  -0.267  -0.599  -0.415
    0CHTO   C74  145  -0.267  -0.813  -0.452
    0CHTO  H146  146  -0.377  -0.820  -0.457
    0CHTO   O54  147  -0.219  -0.798  -0.586
    0CHTO  H133  148  -0.246  -0.873  -0.637
    0CHTO   C75  149  -0.205  -0.938  -0.386
    0CHTO  H147  150  -0.242  -0.946  -0.282
    0CHTO   N13  151  -0.242  -1.060  -0.461
    0CHTO  H139  152  -0.349  -1.071  -0.461
    0CHTO  H140  153  -0.198  -1.146  -0.413
    0CHTO   C76  154  -0.051  -0.919  -0.385
    0CHTO  H148  155  -0.018  -0.914  -0.490
    0CHTO   O49  156  -0.013  -0.799  -0.314
    0CHTO   C77  157  -0.071  -0.681  -0.369
    0CHTO  H149  158  -0.036  -0.666  -0.471
    0CHTO   C88  159  -0.025  -0.558  -0.288
    0CHTO   O58  160   0.119  -0.548  -0.293
    0CHTO  H136  161   0.151  -0.471  -0.248
    0CHTO   O51  162   0.006  -1.031  -0.314
    0CHTO   C78  163   0.150  -1.029  -0.310
    0CHTO  H150  164   0.189  -0.926  -0.299
    0CHTO   C80  165   0.210  -1.092  -0.437
    0CHTO  H152  166   0.165  -1.192  -0.452
    0CHTO   O55  167   0.182  -1.008  -0.550
    0CHTO  H134  168   0.212  -1.048  -0.631
    0CHTO   C84  169   0.363  -1.104  -0.421
    0CHTO  H156  170   0.406  -1.004  -0.415
    0CHTO   N15  171   0.420  -1.172  -0.538
    0CHTO  H143  172   0.379  -1.271  -0.545
    0CHTO  H144  173   0.527  -1.179  -0.526
    0CHTO   C87  174   0.395  -1.182  -0.292
    0CHTO  H159  175   0.355  -1.284  -0.301
    0CHTO   O53  176   0.337  -1.113  -0.180
    0CHTO   C82  177   0.194  -1.110  -0.187
    0CHTO  H154  178   0.154  -1.212  -0.191
    0CHTO   C89  179   0.137  -1.044  -0.059
    0CHTO   O59  180   0.184  -1.119   0.054
    0CHTO  H137  181   0.152  -1.079   0.133
    0CHTO   O45  182   0.539  -1.186  -0.278
    0CHTO   C67  183   0.579  -1.223  -0.145
    0CHTO  H124  184   0.545  -1.148  -0.073
    0CHTO   C65  185   0.519  -1.360  -0.106
    0CHTO  H122  186   0.515  -1.422  -0.196
    0CHTO   O44  187   0.387  -1.334  -0.054
    0CHTO  H102  188   0.339  -1.414  -0.036
    0CHTO   C63  189   0.612  -1.432  -0.006
    0CHTO  H120  190   0.687  -1.490  -0.062
    0CHTO   N11  191   0.543  -1.532   0.078
    0CHTO  H108  192   0.492  -1.603   0.016
    0CHTO  H109  193   0.471  -1.484   0.144
    0CHTO   C61  194   0.686  -1.328   0.082
    0CHTO  H118  195   0.746  -1.385   0.155
    0CHTO   O40  196   0.775  -1.250   0.004
    0CHTO   C68  197   0.733  -1.229  -0.132
    0CHTO  H125  198   0.771  -1.312  -0.194
    0CHTO   C72  199   0.799  -1.099  -0.185
    0CHTO   O48  200   0.775  -1.078  -0.324
    0CHTO  H105  201   0.820  -1.000  -0.354
    0CHTO   O38  202   0.596  -1.239   0.151
    0CHTO   C55  203   0.662  -1.177   0.262
    0CHTO  H112  204   0.768  -1.160   0.238
    0CHTO   C56  205   0.644  -1.259   0.393
    0CHTO  H113  206   0.536  -1.263   0.415
    0CHTO   O42  207   0.688  -1.395   0.379
    0CHTO  H100  208   0.666  -1.446   0.456
    0CHTO   C57  209   0.720  -1.190   0.508
    0CHTO  H114  210   0.827  -1.188   0.485
    0CHTO   N10  211   0.699  -1.261   0.636
    0CHTO  H106  212   0.716  -1.195   0.719
    0CHTO  H107  213   0.764  -1.346   0.643
    0CHTO   C58  214   0.669  -1.046   0.520
    0CHTO  H115  215   0.564  -1.048   0.556
    0CHTO   O37  216   0.678  -0.975   0.396
    0CHTO   C59  217   0.601  -1.038   0.292
    0CHTO  H116  218   0.496  -1.046   0.322
    0CHTO   C70  219   0.614  -0.947   0.169
    0CHTO   O46  220   0.573  -0.813   0.200
    0CHTO  H103  221   0.577  -0.760   0.122
    0CHTO   O39  222   0.753  -0.982   0.618
    0CHTO   C60  223   0.737  -0.840   0.626
    0CHTO  H117  224   0.764  -0.795   0.530
    0CHTO   C62  225   0.594  -0.798   0.664
    0CHTO  H119  226   0.528  -0.823   0.579
    0CHTO   O43  227   0.554  -0.872   0.780
    0CHTO  H101  228   0.462  -0.857   0.801
    0CHTO   C66  229   0.593  -0.645   0.688
    0CHTO  H123  230   0.618  -0.594   0.594
    0CHTO   N12  231   0.461  -0.598   0.730
    0CHTO  H110  232   0.439  -0.630   0.831
    0CHTO  H111  233   0.386  -0.632   0.661
    0CHTO   C69  234   0.697  -0.609   0.796
    0CHTO  H126  235   0.673  -0.662   0.890
    0CHTO   O41  236   0.827  -0.644   0.747
    0CHTO   C64  237   0.838  -0.787   0.730
    0CHTO  H121  238   0.819  -0.838   0.827
    0CHTO   C71  239   0.982  -0.822   0.686
    0CHTO   O47  240   1.072  -0.765   0.783
    0CHTO  H104  241   1.162  -0.785   0.760
    0CHTO   O34  242   0.682  -0.467   0.815
    0CHTO   C49  243   0.732  -0.417   0.941
    0CHTO   H91  244   0.681  -0.470   1.022
    0CHTO   C47  245   0.697  -0.268   0.942
    0CHTO   H89  246   0.737  -0.225   1.036
    0CHTO   O33  247   0.555  -0.244   0.936
    0CHTO   H70  248   0.513  -0.282   1.012
    0CHTO   C45  249   0.763  -0.201   0.818
    0CHTO   H87  250   0.695  -0.203   0.732
    0CHTO    N8  251   0.793  -0.061   0.851
    0CHTO   H75  252   0.703  -0.013   0.888
    0CHTO   H76  253   0.829  -0.008   0.764
    0CHTO   C43  254   0.893  -0.276   0.778
    0CHTO   H85  255   0.865  -0.359   0.713
    0CHTO   O29  256   0.957  -0.319   0.898
    0CHTO   C50  257   0.885  -0.428   0.958
    0CHTO   H92  258   0.919  -0.523   0.913
    0CHTO   C54  259   0.924  -0.441   1.107
    0CHTO   O36  260   1.066  -0.464   1.116
    0CHTO   H72  261   1.091  -0.474   1.207
    0CHTO   O27  262   0.978  -0.187   0.704
    0CHTO   C37  263   1.109  -0.239   0.675
    0CHTO   H79  264   1.163  -0.264   0.768
    0CHTO   C38  265   1.102  -0.367   0.589
    0CHTO   H80  266   1.033  -0.350   0.504
    0CHTO   O31  267   1.056  -0.475   0.669
    0CHTO   H68  268   1.049  -0.556   0.620
    0CHTO   C39  269   1.243  -0.406   0.537
    0CHTO   H81  270   1.305  -0.432   0.624
    0CHTO    N7  271   1.235  -0.523   0.448
    0CHTO   H73  272   1.334  -0.558   0.424
    0CHTO   H74  273   1.181  -0.499   0.358
    0CHTO   C40  274   1.311  -0.288   0.464
    0CHTO   H82  275   1.252  -0.260   0.375
    0CHTO   O26  276   1.320  -0.180   0.558
    0CHTO   C41  277   1.189  -0.132   0.598
    0CHTO   H83  278   1.133  -0.101   0.508
    0CHTO   C52  279   1.214  -0.008   0.686
    0CHTO   O35  280   1.294   0.090   0.617
    0CHTO   H71  281   1.299   0.171   0.667
    0CHTO   O28  282   1.443  -0.327   0.423
    0CHTO   C42  283   1.517  -0.229   0.348
    0CHTO   H84  284   1.617  -0.274   0.335
    0CHTO   C44  285   1.541  -0.094   0.418
    0CHTO   H86  286   1.446  -0.039   0.424
    0CHTO   O32  287   1.592  -0.115   0.550
    0CHTO   H69  288   1.600  -0.032   0.596
    0CHTO   C48  289   1.639  -0.011   0.331
    0CHTO   H90  290   1.734  -0.065   0.321
    0CHTO    N9  291   1.669   0.119   0.397
    0CHTO   H77  292   1.583   0.183   0.395
    0CHTO   H78  293   1.753   0.167   0.349
    0CHTO   C51  294   1.574   0.008   0.191
    0CHTO   H93  295   1.480   0.062   0.204
    0CHTO   O30  296   1.556  -0.120   0.133
    0CHTO   C46  297   1.462  -0.201   0.206
    0CHTO   H88  298   1.365  -0.150   0.213
    0CHTO   C53  299   1.449  -0.333   0.126
    0CHTO   O72  300   1.352  -0.419   0.188
    0CHTO  H199  301   1.343  -0.500   0.140
    0CHTO   O22  302   1.667   0.083   0.110
    0CHTO   C31  303   1.620   0.121  -0.023
    0CHTO   H59  304   1.705   0.172  -0.071
    0CHTO   C29  305   1.579   0.005  -0.115
    0CHTO   H57  306   1.489  -0.045  -0.076
    0CHTO   O21  307   1.682  -0.094  -0.122
    0CHTO   H37  308   1.762  -0.055  -0.156
    0CHTO   C27  309   1.549   0.062  -0.255
    0CHTO   H55  310   1.642   0.107  -0.295
    0CHTO    N5  311   1.504  -0.045  -0.345
    0CHTO   H43  312   1.415  -0.094  -0.309
    0CHTO   H44  313   1.582  -0.119  -0.361
    0CHTO   C25  314   1.439   0.169  -0.243
    0CHTO   H53  315   1.348   0.120  -0.205
    0CHTO   O17  316   1.479   0.273  -0.152
    0CHTO   C32  317   1.504   0.224  -0.020
    0CHTO   H60  318   1.414   0.175   0.020
    0CHTO   C36  319   1.540   0.345   0.068
    0CHTO   O25  320   1.428   0.433   0.075
    0CHTO   H40  321   1.447   0.506   0.133
    0CHTO   O15  322   1.415   0.222  -0.375
    0CHTO   C19  323   1.304   0.315  -0.383
    0CHTO   H47  324   1.305   0.346  -0.489
    0CHTO   C20  325   1.166   0.254  -0.354
    0CHTO   H48  326   1.156   0.223  -0.249
    0CHTO   O19  327   1.148   0.140  -0.439
    0CHTO   H35  328   1.062   0.101  -0.424
    0CHTO   C21  329   1.058   0.360  -0.385
    0CHTO   H49  330   1.063   0.386  -0.492
    0CHTO    N4  331   0.924   0.308  -0.357
    0CHTO   H41  332   0.850   0.382  -0.385
    0CHTO   H42  333   0.914   0.286  -0.251
    0CHTO   C22  334   1.087   0.485  -0.301
    0CHTO   H50  335   1.081   0.458  -0.195
    0CHTO   O14  336   1.217   0.538  -0.333
    0CHTO   C23  337   1.322   0.445  -0.301
    0CHTO   H51  338   1.317   0.426  -0.192
    0CHTO   C34  339   1.455   0.513  -0.335
    0CHTO   O23  340   1.467   0.631  -0.256
    0CHTO   H38  341   1.546   0.680  -0.279
    0CHTO   O16  342   0.989   0.582  -0.335
    0CHTO   C24  343   0.986   0.691  -0.241
    0CHTO   H52  344   1.086   0.712  -0.200
    0CHTO   C26  345   0.888   0.660  -0.127
    0CHTO   H54  346   0.791   0.628  -0.170
    0CHTO   O20  347   0.937   0.556  -0.040
    0CHTO   H36  348   0.871   0.536   0.026
    0CHTO   C30  349   0.864   0.787  -0.044
    0CHTO   H58  350   0.956   0.819   0.006
    0CHTO    N6  351   0.763   0.761   0.061
    0CHTO   H45  352   0.667   0.746   0.015
    0CHTO   H46  353   0.758   0.847   0.125
    0CHTO   C33  354   0.818   0.900  -0.138
    0CHTO   H61  355   0.726   0.871  -0.191
    0CHTO   O18  356   0.920   0.927  -0.233
    0CHTO   C28  357   0.943   0.815  -0.321
    0CHTO   H56  358   0.852   0.792  -0.378
    0CHTO   C35  359   1.055   0.857  -0.419
    0CHTO   O24  360   1.014   0.966  -0.502
    0CHTO   H39  361   1.084   0.987  -0.562
    0CHTO    O9  362   0.784   1.016  -0.062
    0CHTO   C13  363   0.763   1.134  -0.143
    0CHTO   H26  364   0.721   1.106  -0.241
    0CHTO   C11  365   0.900   1.207  -0.157
    0CHTO   H24  366   0.958   1.164  -0.240
    0CHTO    O8  367   0.970   1.184  -0.034
    0CHTO    H3  368   1.056   1.222  -0.035
    0CHTO    C9  369   0.876   1.356  -0.182
    0CHTO   H22  370   0.812   1.360  -0.271
    0CHTO    N2  371   1.000   1.429  -0.215
    0CHTO   H10  372   1.051   1.380  -0.298
    0CHTO   H11  373   1.066   1.437  -0.130
    0CHTO    C7  374   0.803   1.418  -0.060
    0CHTO   H20  375   0.733   1.490  -0.105
    0CHTO    O4  376   0.732   1.320   0.015
    0CHTO   C14  377   0.663   1.227  -0.069
    0CHTO   H27  378   0.602   1.282  -0.144
    0CHTO   C18  379   0.565   1.145   0.017
    0CHTO   O13  380   0.502   1.046  -0.065
    0CHTO    H7  381   0.440   0.994  -0.014
    0CHTO    O2  382   0.895   1.487   0.027
    0CHTO    C1  383   0.834   1.543   0.145
    0CHTO   H14  384   0.788   1.463   0.206
    0CHTO    C2  385   0.727   1.652   0.114
    0CHTO   H15  386   0.770   1.725   0.043
    0CHTO    O6  387   0.608   1.593   0.060
    0CHTO    H1  388   0.544   1.660   0.041
    0CHTO    C3  389   0.684   1.722   0.246
    0CHTO   H16  390   0.633   1.649   0.312
    0CHTO    N1  391   0.589   1.830   0.217
    0CHTO    H8  392   0.636   1.904   0.154
    0CHTO    H9  393   0.555   1.877   0.308
    0CHTO    C4  394   0.808   1.771   0.325
    0CHTO   H17  395   0.855   1.854   0.269
    0CHTO    O1  396   0.900   1.664   0.347
    0CHTO    C5  397   0.949   1.607   0.226
    0CHTO   H18  398   0.997   1.684   0.165
    0CHTO   C16  399   1.055   1.501   0.266
    0CHTO   O11  400   1.146   1.564   0.357
    0CHTO    H5  401   1.215   1.503   0.381
    0CHTO    O3  402   0.762   1.817   0.453
    0CHTO    C6  403   0.868   1.867   0.537
    0CHTO   H19  404   0.963   1.813   0.522
    0CHTO    C8  405   0.889   2.018   0.516
    0CHTO   H21  406   0.793   2.070   0.530
    0CHTO    O7  407   0.941   2.042   0.385
    0CHTO    H2  408   0.957   2.135   0.370
    0CHTO   C12  409   0.991   2.069   0.620
    0CHTO   H25  410   1.088   2.019   0.598
    0CHTO    N3  411   1.009   2.214   0.600
    0CHTO   H12  412   1.096   2.251   0.652
    0CHTO   H13  413   0.921   2.268   0.631
    0CHTO   C15  414   0.946   2.033   0.763
    0CHTO   H28  415   0.854   2.085   0.790
    0CHTO   O10  416   1.049   2.063   0.860
    0CHTO    H4  417   1.064   2.157   0.866
    0CHTO    O5  418   0.928   1.891   0.774
    0CHTO   C10  419   0.826   1.845   0.684
    0CHTO   H23  420   0.734   1.899   0.705
    0CHTO   C17  421   0.802   1.696   0.713
    0CHTO   O12  422   0.766   1.680   0.850
    0CHTO    H6  423   0.754   1.588   0.872
   0.00000   0.00000   0.00000
