chitosan Film  in water:acetic acid 2%
97101
    1CHTO  H203    1   2.216   5.511   3.807
    1CHTO   O82    2   2.180   5.489   3.890
    1CHTO  C123    3   2.265   5.537   3.995
    1CHTO  H227    4   2.272   5.647   3.987
    1CHTO   O77    5   2.190   5.501   4.115
    1CHTO  C118    6   2.251   5.544   4.237
    1CHTO  H222    7   2.268   5.652   4.236
    1CHTO  C125    8   2.153   5.509   4.354
    1CHTO   O84    9   2.029   5.579   4.340
    1CHTO  H205   10   1.972   5.558   4.411
    1CHTO  C114   11   2.386   5.471   4.254
    1CHTO  H218   12   2.368   5.364   4.256
    1CHTO  C116   13   2.480   5.500   4.133
    1CHTO  H220   14   2.512   5.607   4.136
    1CHTO   O79   15   2.601   5.422   4.149
    1CHTO  H201   16   2.662   5.443   4.082
    1CHTO  C120   17   2.407   5.469   3.997
    1CHTO  H224   18   2.395   5.358   3.993
    1CHTO   N21   19   2.489   5.508   3.880
    1CHTO  H211   20   2.469   5.611   3.852
    1CHTO  H212   21   2.469   5.442   3.796
    1CHTO   O75   22   2.436   5.517   4.382
    1CHTO  C112   23   2.546   5.418   4.458
    1CHTO  H216   24   2.646   5.434   4.412
    1CHTO   O73   25   2.502   5.281   4.443
    1CHTO  C113   26   2.594   5.187   4.500
    1CHTO  H217   27   2.696   5.205   4.459
    1CHTO  C124   28   2.554   5.045   4.457
    1CHTO   O83   29   2.563   5.025   4.316
    1CHTO  H204   30   2.538   4.937   4.295
    1CHTO  C109   31   2.596   5.202   4.654
    1CHTO  H213   32   2.494   5.180   4.690
    1CHTO  C110   33   2.636   5.349   4.691
    1CHTO  H214   34   2.742   5.361   4.668
    1CHTO   O78   35   2.620   5.367   4.833
    1CHTO  H200   36   2.653   5.451   4.858
    1CHTO  C111   37   2.552   5.454   4.611
    1CHTO  H215   38   2.449   5.451   4.649
    1CHTO   N19   39   2.601   5.593   4.630
    1CHTO  H207   40   2.538   5.662   4.576
    1CHTO  H208   41   2.703   5.601   4.595
    1CHTO   O74   42   2.689   5.105   4.709
    1CHTO  C115   43   2.666   5.065   4.860
    1CHTO  H219   44   2.603   5.137   4.912
    1CHTO   O76   45   2.593   4.929   4.874
    1CHTO  C122   46   2.656   4.824   4.798
    1CHTO  H226   47   2.621   4.834   4.696
    1CHTO  C126   48   2.600   4.686   4.848
    1CHTO   O85   49   2.634   4.661   4.985
    1CHTO  H206   50   2.588   4.720   5.041
    1CHTO  C121   51   2.815   4.827   4.802
    1CHTO  H225   52   2.852   4.724   4.816
    1CHTO   O81   53   2.863   4.871   4.675
    1CHTO  H202   54   2.840   4.809   4.608
    1CHTO  C119   55   2.868   4.915   4.921
    1CHTO  H223   56   2.831   4.862   5.009
    1CHTO  C117   57   2.809   5.062   4.926
    1CHTO  H221   58   2.866   5.135   4.869
    1CHTO   N20   59   2.811   5.114   5.067
    1CHTO  H209   60   2.879   5.198   5.075
    1CHTO  H210   61   2.712   5.144   5.099
    1CHTO   O80   62   3.023   4.909   4.946
    1CHTO  C103   63   3.125   4.923   4.825
    1CHTO  H190   64   3.101   4.852   4.746
    1CHTO  C101   65   3.145   5.066   4.760
    1CHTO  H188   66   3.161   5.139   4.839
    1CHTO   O68   67   3.017   5.106   4.682
    1CHTO  H168   68   3.026   5.194   4.649
    1CHTO   C99   69   3.272   5.066   4.662
    1CHTO  H186   70   3.253   4.996   4.578
    1CHTO   N17   71   3.303   5.200   4.601
    1CHTO  H174   72   3.327   5.272   4.678
    1CHTO  H175   73   3.218   5.234   4.542
    1CHTO   C97   74   3.395   5.009   4.737
    1CHTO  H184   75   3.424   5.078   4.819
    1CHTO   O64   76   3.364   4.878   4.787
    1CHTO  C104   77   3.262   4.877   4.888
    1CHTO  H191   78   3.287   4.944   4.971
    1CHTO  C108   79   3.252   4.736   4.948
    1CHTO   O71   80   3.374   4.699   5.012
    1CHTO  H171   81   3.365   4.614   5.051
    1CHTO   O62   82   3.507   4.984   4.650
    1CHTO   C91   83   3.640   5.003   4.703
    1CHTO  H178   84   3.651   5.110   4.723
    1CHTO   C92   85   3.741   4.969   4.589
    1CHTO  H179   86   3.714   5.024   4.497
    1CHTO   O66   87   3.870   5.019   4.626
    1CHTO  H166   88   3.931   5.009   4.556
    1CHTO   C93   89   3.752   4.813   4.563
    1CHTO  H180   90   3.848   4.795   4.512
    1CHTO   N16   91   3.649   4.762   4.470
    1CHTO  H172   92   3.550   4.779   4.510
    1CHTO  H173   93   3.665   4.657   4.450
    1CHTO   C94   94   3.750   4.732   4.699
    1CHTO  H181   95   3.653   4.688   4.719
    1CHTO   O61   96   3.779   4.819   4.810
    1CHTO   C95   97   3.677   4.918   4.834
    1CHTO  H182   98   3.588   4.868   4.872
    1CHTO  C106   99   3.728   5.011   4.950
    1CHTO   O69  100   3.740   4.936   5.071
    1CHTO  H169  101   3.769   4.992   5.140
    1CHTO   O63  102   3.859   4.621   4.694
    1CHTO   C96  103   3.841   4.508   4.804
    1CHTO  H183  104   3.738   4.471   4.797
    1CHTO   C98  105   3.866   4.555   4.951
    1CHTO  H185  106   3.799   4.639   4.977
    1CHTO   O67  107   3.827   4.448   5.039
    1CHTO  H167  108   3.833   4.476   5.129
    1CHTO  C102  109   4.021   4.592   4.976
    1CHTO  H189  110   4.039   4.571   5.083
    1CHTO   N18  111   4.055   4.734   4.957
    1CHTO  H176  112   3.999   4.795   5.027
    1CHTO  H177  113   4.033   4.765   4.856
    1CHTO  C105  114   4.112   4.499   4.891
    1CHTO  H192  115   4.136   4.548   4.796
    1CHTO   O65  116   4.049   4.374   4.859
    1CHTO  C100  117   3.941   4.389   4.765
    1CHTO  H187  118   3.986   4.413   4.668
    1CHTO  C107  119   3.870   4.253   4.748
    1CHTO   O70  120   3.814   4.204   4.870
    1CHTO  H170  121   3.772   4.121   4.855
    1CHTO   O57  122   4.244   4.478   4.974
    1CHTO   C85  123   4.349   4.397   4.918
    1CHTO  H157  124   4.308   4.294   4.910
    1CHTO   C83  125   4.467   4.389   5.020
    1CHTO  H155  126   4.429   4.352   5.115
    1CHTO   O56  127   4.516   4.522   5.044
    1CHTO  H135  128   4.451   4.574   5.087
    1CHTO   C81  129   4.574   4.287   4.967
    1CHTO  H153  130   4.531   4.187   4.976
    1CHTO   N14  131   4.692   4.279   5.058
    1CHTO  H141  132   4.660   4.259   5.158
    1CHTO  H142  133   4.746   4.371   5.056
    1CHTO   C79  134   4.605   4.313   4.813
    1CHTO  H151  135   4.554   4.234   4.758
    1CHTO   O52  136   4.551   4.441   4.767
    1CHTO   C86  137   4.406   4.449   4.780
    1CHTO  H158  138   4.385   4.558   4.767
    1CHTO   C90  139   4.338   4.379   4.659
    1CHTO   O60  140   4.380   4.439   4.537
    1CHTO  H138  141   4.338   4.396   4.465
    1CHTO   O50  142   4.742   4.304   4.768
    1CHTO   C73  143   4.784   4.320   4.631
    1CHTO  H145  144   4.754   4.419   4.594
    1CHTO   C74  145   4.721   4.211   4.539
    1CHTO  H146  146   4.612   4.219   4.547
    1CHTO   O54  147   4.752   4.243   4.402
    1CHTO  H133  148   4.712   4.182   4.344
    1CHTO   C75  149   4.774   4.069   4.583
    1CHTO  H147  150   4.743   4.052   4.688
    1CHTO   N13  151   4.715   3.955   4.507
    1CHTO  H139  152   4.645   3.990   4.433
    1CHTO  H140  153   4.792   3.898   4.457
    1CHTO   C76  154   4.934   4.071   4.580
    1CHTO  H148  155   4.965   4.087   4.477
    1CHTO   O49  156   4.985   4.180   4.664
    1CHTO   C77  157   4.939   4.310   4.623
    1CHTO  H149  158   4.970   4.329   4.520
    1CHTO   C88  159   5.008   4.418   4.707
    1CHTO   O58  160   5.151   4.415   4.688
    1CHTO  H136  161   5.191   4.484   4.738
    1CHTO   O51  162   4.993   3.937   4.640
    1CHTO   C78  163   5.151   3.936   4.652
    1CHTO  H150  164   5.192   4.038   4.670
    1CHTO   C80  165   5.216   3.879   4.524
    1CHTO  H152  166   5.167   3.781   4.501
    1CHTO   O55  167   5.188   3.971   4.417
    1CHTO  H134  168   5.220   3.936   4.336
    1CHTO   C84  169   5.371   3.856   4.543
    1CHTO  H156  170   5.419   3.954   4.553
    1CHTO   N15  171   5.433   3.789   4.424
    1CHTO  H143  172   5.391   3.692   4.410
    1CHTO  H144  173   5.539   3.780   4.438
    1CHTO   C87  174   5.399   3.776   4.673
    1CHTO  H159  175   5.359   3.675   4.664
    1CHTO   O53  176   5.331   3.850   4.791
    1CHTO   C82  177   5.188   3.851   4.774
    1CHTO  H154  178   5.152   3.749   4.762
    1CHTO   C89  179   5.120   3.907   4.901
    1CHTO   O59  180   5.125   3.811   5.007
    1CHTO  H137  181   5.083   3.847   5.083
    1CHTO   O45  182   5.562   3.764   4.700
    1CHTO   C67  183   5.607   3.732   4.833
    1CHTO  H124  184   5.577   3.813   4.900
    1CHTO   C65  185   5.547   3.597   4.887
    1CHTO  H122  186   5.534   3.532   4.800
    1CHTO   O44  187   5.418   3.628   4.943
    1CHTO  H102  188   5.372   3.550   4.964
    1CHTO   C63  189   5.648   3.519   4.981
    1CHTO  H120  190   5.717   3.463   4.919
    1CHTO   N11  191   5.588   3.408   5.064
    1CHTO  H108  192   5.532   3.342   5.001
    1CHTO  H109  193   5.524   3.449   5.138
    1CHTO   C61  194   5.735   3.621   5.062
    1CHTO  H118  195   5.806   3.563   5.123
    1CHTO   O40  196   5.814   3.706   4.975
    1CHTO   C68  197   5.766   3.728   4.838
    1CHTO  H125  198   5.803   3.646   4.774
    1CHTO   C72  199   5.832   3.858   4.787
    1CHTO   O48  200   5.816   3.878   4.646
    1CHTO  H105  201   5.858   3.958   4.621
    1CHTO   O38  202   5.656   3.707   5.146
    1CHTO   C55  203   5.725   3.768   5.257
    1CHTO  H112  204   5.834   3.760   5.244
    1CHTO   C56  205   5.676   3.702   5.391
    1CHTO  H113  206   5.565   3.704   5.390
    1CHTO   O42  207   5.712   3.562   5.392
    1CHTO  H100  208   5.677   3.520   5.467
    1CHTO   C57  209   5.732   3.777   5.518
    1CHTO  H114  210   5.838   3.752   5.526
    1CHTO   N10  211   5.666   3.733   5.644
    1CHTO  H106  212   5.665   3.812   5.718
    1CHTO  H107  213   5.718   3.647   5.684
    1CHTO   C58  214   5.719   3.931   5.501
    1CHTO  H115  215   5.612   3.960   5.510
    1CHTO   O37  216   5.769   3.976   5.374
    1CHTO   C59  217   5.695   3.921   5.264
    1CHTO  H116  218   5.589   3.939   5.279
    1CHTO   C70  219   5.738   3.994   5.136
    1CHTO   O46  220   5.694   4.130   5.136
    1CHTO  H103  221   5.720   4.172   5.056
    1CHTO   O39  222   5.807   4.005   5.614
    1CHTO   C60  223   5.779   4.145   5.638
    1CHTO  H117  224   5.808   4.202   5.549
    1CHTO   C62  225   5.629   4.174   5.668
    1CHTO  H119  226   5.574   4.157   5.573
    1CHTO   O43  227   5.583   4.079   5.766
    1CHTO  H101  228   5.491   4.091   5.781
    1CHTO   C66  229   5.609   4.327   5.712
    1CHTO  H123  230   5.641   4.391   5.631
    1CHTO   N12  231   5.466   4.361   5.736
    1CHTO  H110  232   5.426   4.299   5.814
    1CHTO  H111  233   5.410   4.350   5.645
    1CHTO   C69  234   5.698   4.359   5.834
    1CHTO  H126  235   5.673   4.292   5.920
    1CHTO   O41  236   5.843   4.336   5.792
    1CHTO   C64  237   5.872   4.192   5.754
    1CHTO  H121  238   5.855   4.126   5.841
    1CHTO   C71  239   6.020   4.179   5.712
    1CHTO   O47  240   6.107   4.222   5.818
    1CHTO  H104  241   6.196   4.214   5.790
    1CHTO   O34  242   5.683   4.507   5.882
    1CHTO   C49  243   5.730   4.579   6.007
    1CHTO   H91  244   5.679   4.534   6.092
    1CHTO   C47  245   5.691   4.728   5.994
    1CHTO   H89  246   5.718   4.773   6.092
    1CHTO   O33  247   5.549   4.742   5.976
    1CHTO   H70  248   5.503   4.712   6.052
    1CHTO   C45  249   5.770   4.800   5.871
    1CHTO   H87  250   5.707   4.796   5.782
    1CHTO    N8  251   5.794   4.942   5.907
    1CHTO   H75  252   5.700   4.991   5.928
    1CHTO   H76  253   5.843   4.992   5.824
    1CHTO   C43  254   5.902   4.715   5.833
    1CHTO   H85  255   5.866   4.633   5.771
    1CHTO   O29  256   5.965   4.668   5.953
    1CHTO   C50  257   5.885   4.573   6.027
    1CHTO   H92  258   5.919   4.471   6.001
    1CHTO   C54  259   5.921   4.585   6.178
    1CHTO   O36  260   6.059   4.558   6.201
    1CHTO   H72  261   6.078   4.566   6.293
    1CHTO   O27  262   5.995   4.784   5.747
    1CHTO   C37  263   6.126   4.745   5.703
    1CHTO   H79  264   6.194   4.738   5.789
    1CHTO   C38  265   6.126   4.605   5.633
    1CHTO   H80  266   6.045   4.604   5.557
    1CHTO   O31  267   6.095   4.507   5.734
    1CHTO   H68  268   6.081   4.423   5.694
    1CHTO   C39  269   6.264   4.570   5.565
    1CHTO   H81  270   6.335   4.550   5.645
    1CHTO    N7  271   6.257   4.445   5.480
    1CHTO   H73  272   6.355   4.424   5.438
    1CHTO   H74  273   6.185   4.458   5.401
    1CHTO   C40  274   6.320   4.692   5.483
    1CHTO   H82  275   6.265   4.705   5.389
    1CHTO   O26  276   6.316   4.810   5.564
    1CHTO   C41  277   6.182   4.850   5.604
    1CHTO   H83  278   6.117   4.857   5.515
    1CHTO   C52  279   6.192   4.991   5.666
    1CHTO   O35  280   6.237   5.092   5.568
    1CHTO   H71  281   6.243   5.175   5.610
    1CHTO   O28  282   6.460   4.674   5.451
    1CHTO   C42  283   6.540   4.769   5.372
    1CHTO   H84  284   6.639   4.723   5.371
    1CHTO   C44  285   6.559   4.912   5.432
    1CHTO   H86  286   6.462   4.962   5.436
    1CHTO   O32  287   6.608   4.896   5.567
    1CHTO   H69  288   6.613   4.980   5.609
    1CHTO   C48  289   6.655   5.001   5.343
    1CHTO   H90  290   6.754   4.955   5.343
    1CHTO    N9  291   6.673   5.140   5.397
    1CHTO   H77  292   6.578   5.191   5.401
    1CHTO   H78  293   6.743   5.195   5.336
    1CHTO   C51  294   6.600   4.999   5.196
    1CHTO   H93  295   6.502   5.047   5.196
    1CHTO   O30  296   6.593   4.863   5.152
    1CHTO   C46  297   6.494   4.782   5.224
    1CHTO   H88  298   6.397   4.832   5.219
    1CHTO   C53  299   6.488   4.648   5.147
    1CHTO   O72  300   6.376   4.568   5.187
    1CHTO  H199  301   6.376   4.488   5.138
    1CHTO   O22  302   6.688   5.065   5.103
    1CHTO   C31  303   6.644   5.100   4.966
    1CHTO   H59  304   6.730   5.152   4.919
    1CHTO   C29  305   6.609   4.979   4.876
    1CHTO   H57  306   6.527   4.924   4.924
    1CHTO   O21  307   6.722   4.890   4.873
    1CHTO   H37  308   6.795   4.929   4.829
    1CHTO   C27  309   6.563   5.023   4.731
    1CHTO   H55  310   6.649   5.068   4.680
    1CHTO    N5  311   6.515   4.909   4.649
    1CHTO   H43  312   6.429   4.863   4.696
    1CHTO   H44  313   6.594   4.836   4.636
    1CHTO   C25  314   6.453   5.134   4.744
    1CHTO   H53  315   6.364   5.090   4.792
    1CHTO   O17  316   6.502   5.242   4.827
    1CHTO   C32  317   6.527   5.203   4.963
    1CHTO   H60  318   6.438   5.157   5.005
    1CHTO   C36  319   6.559   5.331   5.042
    1CHTO   O25  320   6.447   5.420   5.046
    1CHTO   H40  321   6.469   5.497   5.095
    1CHTO   O15  322   6.411   5.198   4.605
    1CHTO   C19  323   6.295   5.286   4.594
    1CHTO   H47  324   6.286   5.305   4.486
    1CHTO   C20  325   6.163   5.222   4.646
    1CHTO   H48  326   6.169   5.195   4.752
    1CHTO   O19  327   6.143   5.102   4.570
    1CHTO   H35  328   6.068   5.055   4.601
    1CHTO   C21  329   6.041   5.322   4.629
    1CHTO   H49  330   6.025   5.340   4.523
    1CHTO    N4  331   5.913   5.266   4.683
    1CHTO   H41  332   5.833   5.337   4.667
    1CHTO   H42  333   5.923   5.247   4.788
    1CHTO   C22  334   6.078   5.458   4.693
    1CHTO   H50  335   6.091   5.444   4.801
    1CHTO   O14  336   6.200   5.509   4.636
    1CHTO   C23  337   6.315   5.426   4.662
    1CHTO   H51  338   6.326   5.418   4.771
    1CHTO   C34  339   6.440   5.498   4.608
    1CHTO   O23  340   6.464   5.620   4.679
    1CHTO   H38  341   6.540   5.662   4.644
    1CHTO   O16  342   5.980   5.559   4.665
    1CHTO   C24  343   5.976   5.676   4.770
    1CHTO   H52  344   6.071   5.686   4.823
    1CHTO   C26  345   5.862   5.651   4.870
    1CHTO   H54  346   5.768   5.633   4.813
    1CHTO   O20  347   5.893   5.531   4.944
    1CHTO   H36  348   5.822   5.508   5.000
    1CHTO   C30  349   5.841   5.774   4.963
    1CHTO   H58  350   5.929   5.788   5.027
    1CHTO    N6  351   5.727   5.754   5.057
    1CHTO   H45  352   5.635   5.742   5.001
    1CHTO   H46  353   5.717   5.840   5.122
    1CHTO   C33  354   5.827   5.903   4.877
    1CHTO   H61  355   5.736   5.897   4.815
    1CHTO   O18  356   5.941   5.915   4.790
    1CHTO   C28  357   5.954   5.809   4.694
    1CHTO   H56  358   5.863   5.801   4.634
    1CHTO   C35  359   6.073   5.840   4.600
    1CHTO   O24  360   6.052   5.958   4.523
    1CHTO   H39  361   6.126   5.972   4.466
    1CHTO    O9  362   5.810   6.021   4.958
    1CHTO   C13  363   5.792   6.156   4.874
    1CHTO   H26  364   5.762   6.130   4.770
    1CHTO   C11  365   5.929   6.236   4.877
    1CHTO   H24  366   5.999   6.187   4.808
    1CHTO    O8  367   5.987   6.231   5.010
    1CHTO    H3  368   6.072   6.269   5.009
    1CHTO    C9  369   5.903   6.382   4.830
    1CHTO   H22  370   5.856   6.372   4.731
    1CHTO    N2  371   6.028   6.457   4.802
    1CHTO   H10  372   6.090   6.403   4.732
    1CHTO   H11  373   6.082   6.474   4.895
    1CHTO    C7  374   5.800   6.453   4.928
    1CHTO   H20  375   5.734   6.512   4.860
    1CHTO    O4  376   5.720   6.359   5.003
    1CHTO   C14  377   5.672   6.245   4.931
    1CHTO   H27  378   5.611   6.282   4.845
    1CHTO   C18  379   5.575   6.170   5.026
    1CHTO   O13  380   5.514   6.059   4.959
    1CHTO    H7  381   5.456   6.015   5.019
    1CHTO    O2  382   5.872   6.556   5.032
    1CHTO    C1  383   5.800   6.596   5.150
    1CHTO   H14  384   5.739   6.512   5.188
    1CHTO    C2  385   5.705   6.721   5.127
    1CHTO   H15  386   5.764   6.794   5.070
    1CHTO    O6  387   5.593   6.678   5.047
    1CHTO    H1  388   5.539   6.751   5.026
    1CHTO    C3  389   5.658   6.785   5.267
    1CHTO   H16  390   5.591   6.715   5.318
    1CHTO    N1  391   5.583   6.913   5.247
    1CHTO    H8  392   5.646   6.986   5.198
    1CHTO    H9  393   5.549   6.951   5.342
    1CHTO    C4  394   5.783   6.801   5.362
    1CHTO   H17  395   5.852   6.872   5.316
    1CHTO    O1  396   5.848   6.674   5.380
    1CHTO    C5  397   5.907   6.624   5.259
    1CHTO   H18  398   5.977   6.699   5.219
    1CHTO   C16  399   5.986   6.495   5.291
    1CHTO   O11  400   6.104   6.524   5.366
    1CHTO    H5  401   6.151   6.445   5.382
    1CHTO    O3  402   5.746   6.847   5.493
    1CHTO    C6  403   5.858   6.890   5.578
    1CHTO   H19  404   5.952   6.840   5.552
    1CHTO    C8  405   5.881   7.044   5.569
    1CHTO   H21  406   5.787   7.095   5.591
    1CHTO    O7  407   5.922   7.074   5.434
    1CHTO    H2  408   5.929   7.167   5.422
    1CHTO   C12  409   5.990   7.090   5.675
    1CHTO   H25  410   6.086   7.043   5.643
    1CHTO    N3  411   6.011   7.239   5.671
    1CHTO   H12  412   6.088   7.266   5.742
    1CHTO   H13  413   5.919   7.290   5.694
    1CHTO   C15  414   5.952   7.035   5.817
    1CHTO   H28  415   5.863   7.084   5.857
    1CHTO   O10  416   6.067   7.049   5.919
    1CHTO    H4  417   6.087   7.139   5.933
    1CHTO    O5  418   5.933   6.893   5.813
    1CHTO   C10  419   5.827   6.851   5.726
    1CHTO   H23  420   5.734   6.899   5.758
    1CHTO   C17  421   5.808   6.699   5.741
    1CHTO   O12  422   5.765   6.663   5.872
    1CHTO    H6  423   5.753   6.570   5.877
    2CHTO  H203  424   0.394   9.722   4.415
    2CHTO   O82  425   0.315   9.672   4.406
    2CHTO  C123  426   0.276   9.620   4.534
    2CHTO  H227  427   0.262   9.704   4.604
    2CHTO   O77  428   0.147   9.556   4.506
    2CHTO  C118  429   0.081   9.504   4.622
    2CHTO  H222  430   0.070   9.584   4.698
    2CHTO  C125  431   9.938   9.454   4.581
    2CHTO   O84  432   9.855   9.563   4.541
    2CHTO  H205  433   9.769   9.531   4.520
    2CHTO  C114  434   0.165   9.390   4.682
    2CHTO  H218  435   0.171   9.309   4.609
    2CHTO  C116  436   0.311   9.438   4.714
    2CHTO  H220  437   0.307   9.506   4.803
    2CHTO   O79  438   0.388   9.323   4.755
    2CHTO  H201  439   0.474   9.349   4.781
    2CHTO  C120  440   0.376   9.512   4.591
    2CHTO  H224  441   0.395   9.435   4.514
    2CHTO   N21  442   0.507   9.573   4.627
    2CHTO  H211  443   0.494   9.673   4.665
    2CHTO  H212  444   0.572   9.574   4.540
    2CHTO   O75  445   0.090   9.350   4.797
    2CHTO  C112  446   0.097   9.193   4.836
    2CHTO  H216  447   0.203   9.165   4.852
    2CHTO   O73  448   0.038   9.119   4.728
    2CHTO  C113  449   0.036   8.977   4.750
    2CHTO  H217  450   0.140   8.942   4.768
    2CHTO  C124  451   9.983   8.904   4.626
    2CHTO   O83  452   0.077   8.905   4.518
    2CHTO  H204  453   0.042   8.857   4.445
    2CHTO  C109  454   9.948   8.942   4.873
    2CHTO  H213  455   9.845   8.972   4.848
    2CHTO  C110  456   9.998   9.020   4.999
    2CHTO  H214  457   0.093   8.976   5.030
    2CHTO   O78  458   9.904   8.999   5.105
    2CHTO  H200  459   9.935   9.037   5.185
    2CHTO  C111  460   0.015   9.171   4.969
    2CHTO  H215  461   9.916   9.215   4.954
    2CHTO   N19  462   0.078   9.246   5.082
    2CHTO  H207  463   0.083   9.351   5.058
    2CHTO  H208  464   0.177   9.208   5.101
    2CHTO   O74  465   9.953   8.797   4.893
    2CHTO  C115  466   9.826   8.736   4.959
    2CHTO  H219  467   9.749   8.813   4.978
    2CHTO   O76  468   9.756   8.631   4.865
    2CHTO  C122  469   9.843   8.525   4.823
    2CHTO  H226  470   9.902   8.564   4.740
    2CHTO  C126  471   9.756   8.409   4.762
    2CHTO   O85  472   9.662   8.355   4.855
    2CHTO  H206  473   9.597   8.419   4.876
    2CHTO  C121  474   9.939   8.471   4.937
    2CHTO  H225  475   9.940   8.361   4.933
    2CHTO   O81  476   0.074   8.513   4.910
    2CHTO  H202  477   0.104   8.476   4.829
    2CHTO  C119  478   9.888   8.515   5.079
    2CHTO  H223  479   9.788   8.472   5.084
    2CHTO  C117  480   9.873   8.671   5.095
    2CHTO  H221  481   9.965   8.724   5.119
    2CHTO   N20  482   9.780   8.703   5.208
    2CHTO  H209  483   9.818   8.660   5.300
    2CHTO  H210  484   9.681   8.666   5.187
    2CHTO   O80  485   9.957   8.445   5.204
    2CHTO  C103  486   0.111   8.426   5.209
    2CHTO  H190  487   0.146   8.373   5.120
    2CHTO  C101  488   0.204   8.552   5.235
    2CHTO  H188  489   0.170   8.603   5.325
    2CHTO   O68  490   0.196   8.650   5.117
    2CHTO  H168  491   0.246   8.727   5.136
    2CHTO   C99  492   0.356   8.504   5.257
    2CHTO  H186  493   0.392   8.458   5.162
    2CHTO   N17  494   0.452   8.614   5.290
    2CHTO  H174  495   0.425   8.660   5.384
    2CHTO  H175  496   0.453   8.687   5.210
    2CHTO   C97  497   0.362   8.391   5.364
    2CHTO  H184  498   0.344   8.433   5.464
    2CHTO   O64  499   0.268   8.287   5.332
    2CHTO  C104  500   0.131   8.329   5.331
    2CHTO  H191  501   0.105   8.381   5.424
    2CHTO  C108  502   0.044   8.203   5.327
    2CHTO   O71  503   0.060   8.123   5.445
    2CHTO  H171  504   0.008   8.046   5.438
    2CHTO   O62  505   0.487   8.320   5.359
    2CHTO   C91  506   0.525   8.244   5.475
    2CHTO  H178  507   0.517   8.310   5.562
    2CHTO   C92  508   0.676   8.211   5.458
    2CHTO  H179  509   0.732   8.304   5.436
    2CHTO   O66  510   0.726   8.166   5.585
    2CHTO  H166  511   0.819   8.156   5.582
    2CHTO   C93  512   0.702   8.098   5.350
    2CHTO  H180  513   0.800   8.055   5.373
    2CHTO   N16  514   0.715   8.150   5.212
    2CHTO  H172  515   0.623   8.199   5.181
    2CHTO  H173  516   0.739   8.069   5.144
    2CHTO   C94  517   0.593   7.984   5.360
    2CHTO  H181  518   0.517   7.993   5.282
    2CHTO   O61  519   0.524   7.989   5.486
    2CHTO   C95  520   0.444   8.107   5.501
    2CHTO  H182  521   0.360   8.100   5.432
    2CHTO  C106  522   0.380   8.107   5.644
    2CHTO   O69  523   0.290   7.997   5.660
    2CHTO  H169  524   0.254   7.999   5.747
    2CHTO   O63  525   0.664   7.850   5.347
    2CHTO   C96  526   0.574   7.732   5.298
    2CHTO  H183  527   0.517   7.766   5.211
    2CHTO   C98  528   0.473   7.679   5.406
    2CHTO  H185  529   0.408   7.761   5.440
    2CHTO   O67  530   0.385   7.584   5.345
    2CHTO  H167  531   0.318   7.558   5.405
    2CHTO  C102  532   0.550   7.609   5.529
    2CHTO  H189  533   0.488   7.523   5.558
    2CHTO   N18  534   0.561   7.693   5.650
    2CHTO  H176  535   0.463   7.718   5.687
    2CHTO  H177  536   0.616   7.783   5.628
    2CHTO  C105  537   0.689   7.555   5.483
    2CHTO  H192  538   0.763   7.635   5.487
    2CHTO   O65  539   0.682   7.508   5.347
    2CHTO  C100  540   0.674   7.616   5.252
    2CHTO  H187  541   0.775   7.659   5.244
    2CHTO  C107  542   0.640   7.560   5.111
    2CHTO   O70  543   0.517   7.488   5.108
    2CHTO  H170  544   0.501   7.455   5.021
    2CHTO   O57  545   0.730   7.440   5.585
    2CHTO   C85  546   0.853   7.367   5.572
    2CHTO  H157  547   0.834   7.288   5.497
    2CHTO   C83  548   0.879   7.294   5.707
    2CHTO  H155  549   0.789   7.237   5.733
    2CHTO   O56  550   0.894   7.394   5.811
    2CHTO  H135  551   0.814   7.441   5.823
    2CHTO   C81  552   0.999   7.195   5.692
    2CHTO  H153  553   0.965   7.112   5.629
    2CHTO   N14  554   1.029   7.126   5.820
    2CHTO  H141  555   0.941   7.082   5.861
    2CHTO  H142  556   1.068   7.197   5.891
    2CHTO   C79  557   1.122   7.263   5.617
    2CHTO  H151  558   1.122   7.224   5.515
    2CHTO   O52  559   1.106   7.409   5.608
    2CHTO   C86  560   0.985   7.451   5.537
    2CHTO  H158  561   0.972   7.556   5.568
    2CHTO   C90  562   1.011   7.454   5.384
    2CHTO   O60  563   1.113   7.548   5.351
    2CHTO  H138  564   1.127   7.548   5.258
    2CHTO   O50  565   1.252   7.232   5.668
    2CHTO   C73  566   1.393   7.248   5.650
    2CHTO  H145  567   1.421   7.353   5.667
    2CHTO   C74  568   1.436   7.209   5.505
    2CHTO  H146  569   1.375   7.270   5.436
    2CHTO   O54  570   1.573   7.251   5.487
    2CHTO  H133  571   1.600   7.234   5.399
    2CHTO   C75  572   1.414   7.055   5.483
    2CHTO  H147  573   1.306   7.033   5.496
    2CHTO   N13  574   1.449   7.008   5.347
    2CHTO  H139  575   1.389   7.059   5.274
    2CHTO  H140  576   1.431   6.902   5.339
    2CHTO   C76  577   1.493   6.976   5.598
    2CHTO  H148  578   1.599   6.999   5.587
    2CHTO   O49  579   1.447   7.019   5.729
    2CHTO   C77  580   1.469   7.159   5.754
    2CHTO  H149  581   1.576   7.181   5.747
    2CHTO   C88  582   1.428   7.192   5.898
    2CHTO   O58  583   1.510   7.118   5.995
    2CHTO  H136  584   1.483   7.141   6.082
    2CHTO   O51  585   1.465   6.821   5.592
    2CHTO   C78  586   1.566   6.739   5.681
    2CHTO  H150  587   1.604   6.801   5.765
    2CHTO   C80  588   1.686   6.690   5.596
    2CHTO  H152  589   1.647   6.642   5.504
    2CHTO   O55  590   1.760   6.807   5.558
    2CHTO  H134  591   1.829   6.784   5.499
    2CHTO   C84  592   1.776   6.587   5.675
    2CHTO  H156  593   1.823   6.640   5.759
    2CHTO   N15  594   1.888   6.532   5.592
    2CHTO  H143  595   1.849   6.479   5.508
    2CHTO  H144  596   1.948   6.465   5.650
    2CHTO   C87  597   1.687   6.475   5.734
    2CHTO  H159  598   1.640   6.419   5.652
    2CHTO   O53  599   1.580   6.543   5.821
    2CHTO   C82  600   1.489   6.621   5.743
    2CHTO  H154  601   1.443   6.560   5.665
    2CHTO   C89  602   1.375   6.672   5.834
    2CHTO   O59  603   1.301   6.562   5.888
    2CHTO  H137  604   1.233   6.595   5.945
    2CHTO   O45  605   1.771   6.371   5.827
    2CHTO   C67  606   1.693   6.296   5.921
    2CHTO  H124  607   1.632   6.366   5.980
    2CHTO   C65  608   1.596   6.194   5.851
    2CHTO  H122  609   1.645   6.166   5.757
    2CHTO   O44  610   1.475   6.267   5.820
    2CHTO  H102  611   1.420   6.215   5.766
    2CHTO   C63  612   1.580   6.059   5.931
    2CHTO  H120  613   1.668   5.997   5.912
    2CHTO   N11  614   1.470   5.968   5.886
    2CHTO  H108  615   1.477   5.950   5.781
    2CHTO  H109  616   1.375   6.012   5.908
    2CHTO   C61  617   1.581   6.090   6.084
    2CHTO  H118  618   1.577   5.993   6.136
    2CHTO   O40  619   1.703   6.156   6.128
    2CHTO   C68  620   1.785   6.223   6.027
    2CHTO  H125  621   1.850   6.148   5.977
    2CHTO   C72  622   1.879   6.321   6.102
    2CHTO   O48  623   1.981   6.378   6.019
    2CHTO  H105  624   2.035   6.435   6.070
    2CHTO   O38  625   1.468   6.171   6.123
    2CHTO   C55  626   1.435   6.168   6.263
    2CHTO  H112  627   1.524   6.142   6.322
    2CHTO   C56  628   1.316   6.067   6.289
    2CHTO  H113  629   1.231   6.099   6.227
    2CHTO   O42  630   1.353   5.935   6.243
    2CHTO  H100  631   1.280   5.877   6.250
    2CHTO   C57  632   1.277   6.066   6.442
    2CHTO  H114  633   1.359   6.018   6.495
    2CHTO   N10  634   1.155   5.987   6.470
    2CHTO  H106  635   1.103   6.025   6.557
    2CHTO  H107  636   1.181   5.883   6.488
    2CHTO   C58  637   1.264   6.211   6.496
    2CHTO  H115  638   1.167   6.256   6.460
    2CHTO   O37  639   1.373   6.297   6.457
    2CHTO   C59  640   1.390   6.307   6.314
    2CHTO  H116  641   1.296   6.337   6.268
    2CHTO   C70  642   1.495   6.414   6.281
    2CHTO   O46  643   1.454   6.545   6.322
    2CHTO  H103  644   1.520   6.607   6.300
    2CHTO   O39  645   1.265   6.203   6.657
    2CHTO   C60  646   1.251   6.326   6.731
    2CHTO  H117  647   1.333   6.393   6.704
    2CHTO   C62  648   1.116   6.399   6.703
    2CHTO  H119  649   1.119   6.429   6.596
    2CHTO   O43  650   1.007   6.307   6.723
    2CHTO  H101  651   0.926   6.348   6.699
    2CHTO   C66  652   1.107   6.531   6.795
    2CHTO  H123  653   1.193   6.594   6.773
    2CHTO   N12  654   0.987   6.612   6.764
    2CHTO  H110  655   0.897   6.554   6.780
    2CHTO  H111  656   0.992   6.649   6.663
    2CHTO   C69  657   1.117   6.491   6.944
    2CHTO  H126  658   1.033   6.422   6.971
    2CHTO   O41  659   1.253   6.418   6.966
    2CHTO   C64  660   1.268   6.294   6.882
    2CHTO  H121  661   1.190   6.220   6.911
    2CHTO   C71  662   1.406   6.230   6.909
    2CHTO   O47  663   1.416   6.187   7.045
    2CHTO  H104  664   1.501   6.149   7.060
    2CHTO   O34  665   1.111   6.615   7.038
    2CHTO   C49  666   1.073   6.615   7.185
    2CHTO   H91  667   0.973   6.575   7.192
    2CHTO   C47  668   1.077   6.761   7.236
    2CHTO   H89  669   1.037   6.754   7.340
    2CHTO   O33  670   0.989   6.844   7.159
    2CHTO   H70  671   0.900   6.816   7.169
    2CHTO   C45  672   1.228   6.820   7.234
    2CHTO   H87  673   1.243   6.875   7.140
    2CHTO    N8  674   1.244   6.915   7.347
    2CHTO   H75  675   1.169   6.993   7.341
    2CHTO   H76  676   1.343   6.960   7.343
    2CHTO   C43  677   1.335   6.700   7.229
    2CHTO   H85  678   1.336   6.668   7.125
    2CHTO   O29  679   1.292   6.594   7.317
    2CHTO   C50  680   1.170   6.530   7.274
    2CHTO   H92  681   1.198   6.440   7.217
    2CHTO   C54  682   1.097   6.474   7.398
    2CHTO   O36  683   1.176   6.374   7.463
    2CHTO   H72  684   1.129   6.339   7.536
    2CHTO   O27  685   1.471   6.738   7.255
    2CHTO   C37  686   1.584   6.651   7.275
    2CHTO   H79  687   1.566   6.586   7.363
    2CHTO   C38  688   1.609   6.557   7.153
    2CHTO   H80  689   1.612   6.618   7.062
    2CHTO   O31  690   1.498   6.466   7.144
    2CHTO   H68  691   1.504   6.416   7.065
    2CHTO   C39  692   1.744   6.476   7.167
    2CHTO   H81  693   1.729   6.402   7.246
    2CHTO    N7  694   1.779   6.398   7.042
    2CHTO   H73  695   1.870   6.342   7.058
    2CHTO   H74  696   1.791   6.466   6.959
    2CHTO   C40  697   1.863   6.568   7.213
    2CHTO   H82  698   1.895   6.632   7.130
    2CHTO   O26  699   1.823   6.646   7.327
    2CHTO   C41  700   1.711   6.735   7.302
    2CHTO   H83  701   1.733   6.798   7.214
    2CHTO   C52  702   1.694   6.829   7.424
    2CHTO   O35  703   1.811   6.917   7.443
    2CHTO   H71  704   1.796   6.973   7.517
    2CHTO   O28  705   1.976   6.488   7.255
    2CHTO   C42  706   2.105   6.543   7.299
    2CHTO   H84  707   2.165   6.453   7.315
    2CHTO   C44  708   2.103   6.618   7.436
    2CHTO   H86  709   2.037   6.705   7.427
    2CHTO   O32  710   2.048   6.527   7.533
    2CHTO   H69  711   2.034   6.571   7.615
    2CHTO   C48  712   2.246   6.672   7.478
    2CHTO   H90  713   2.311   6.586   7.496
    2CHTO    N9  714   2.242   6.749   7.607
    2CHTO   H77  715   2.177   6.835   7.597
    2CHTO   H78  716   2.341   6.780   7.634
    2CHTO   C51  717   2.304   6.756   7.359
    2CHTO   H93  718   2.236   6.840   7.341
    2CHTO   O30  719   2.314   6.671   7.244
    2CHTO   C46  720   2.179   6.628   7.190
    2CHTO   H88  721   2.120   6.716   7.167
    2CHTO   C53  722   2.210   6.547   7.062
    2CHTO   O72  723   2.092   6.522   6.984
    2CHTO  H199  724   2.115   6.473   6.908
    2CHTO   O22  725   2.437   6.804   7.386
    2CHTO   C31  726   2.501   6.912   7.307
    2CHTO   H59  727   2.592   6.941   7.365
    2CHTO   C29  728   2.551   6.867   7.168
    2CHTO   H57  729   2.462   6.833   7.111
    2CHTO   O21  730   2.636   6.752   7.184
    2CHTO   H37  731   2.715   6.775   7.229
    2CHTO   C27  732   2.621   6.984   7.089
    2CHTO   H55  733   2.715   7.009   7.140
    2CHTO    N5  734   2.654   6.947   6.948
    2CHTO   H43  735   2.563   6.924   6.894
    2CHTO   H44  736   2.721   6.862   6.947
    2CHTO   C25  737   2.532   7.113   7.093
    2CHTO   H53  738   2.440   7.096   7.034
    2CHTO   O17  739   2.492   7.144   7.230
    2CHTO   C32  740   2.415   7.041   7.293
    2CHTO   H60  741   2.327   7.019   7.233
    2CHTO   C36  742   2.368   7.095   7.431
    2CHTO   O25  743   2.280   7.207   7.414
    2CHTO   H40  744   2.253   7.238   7.499
    2CHTO   O15  745   2.607   7.238   7.037
    2CHTO   C19  746   2.552   7.369   7.005
    2CHTO   H47  747   2.637   7.424   6.962
    2CHTO   C20  748   2.437   7.365   6.900
    2CHTO   H48  749   2.352   7.303   6.935
    2CHTO   O19  750   2.492   7.303   6.782
    2CHTO   H35  751   2.424   7.290   6.718
    2CHTO   C21  752   2.381   7.510   6.869
    2CHTO   H49  753   2.460   7.568   6.821
    2CHTO    N4  754   2.266   7.509   6.774
    2CHTO   H41  755   2.234   7.610   6.754
    2CHTO   H42  756   2.184   7.453   6.816
    2CHTO   C22  757   2.348   7.579   7.004
    2CHTO   H50  758   2.267   7.523   7.052
    2CHTO   O14  759   2.463   7.580   7.089
    2CHTO   C23  760   2.507   7.450   7.130
    2CHTO   H51  761   2.423   7.401   7.182
    2CHTO   C34  762   2.622   7.466   7.230
    2CHTO   O23  763   2.576   7.529   7.351
    2CHTO   H38  764   2.647   7.538   7.411
    2CHTO   O16  765   2.311   7.717   6.987
    2CHTO   C24  766   2.251   7.784   7.119
    2CHTO   H52  767   2.286   7.734   7.210
    2CHTO   C26  768   2.097   7.779   7.114
    2CHTO   H54  769   2.064   7.818   7.015
    2CHTO   O20  770   2.057   7.641   7.125
    2CHTO   H36  771   1.964   7.634   7.112
    2CHTO   C30  772   2.032   7.866   7.226
    2CHTO   H58  773   2.047   7.818   7.324
    2CHTO    N6  774   1.884   7.876   7.208
    2CHTO   H45  775   1.861   7.924   7.114
    2CHTO   H46  776   1.840   7.933   7.289
    2CHTO   C33  777   2.100   8.006   7.236
    2CHTO   H61  778   2.076   8.065   7.146
    2CHTO   O18  779   2.243   7.991   7.243
    2CHTO   C28  780   2.302   7.930   7.127
    2CHTO   H56  781   2.272   7.983   7.037
    2CHTO   C35  782   2.455   7.935   7.140
    2CHTO   O24  783   2.505   8.069   7.146
    2CHTO   H39  784   2.598   8.068   7.154
    2CHTO    O9  785   2.049   8.082   7.347
    2CHTO   C13  786   2.107   8.232   7.353
    2CHTO   H26  787   2.157   8.255   7.257
    2CHTO   C11  788   2.208   8.243   7.476
    2CHTO   H24  789   2.304   8.199   7.444
    2CHTO    O8  790   2.158   8.166   7.588
    2CHTO    H3  791   2.222   8.165   7.657
    2CHTO    C9  792   2.226   8.393   7.511
    2CHTO   H22  793   2.255   8.442   7.417
    2CHTO    N2  794   2.341   8.418   7.602
    2CHTO   H10  795   2.431   8.376   7.561
    2CHTO   H11  796   2.320   8.376   7.699
    2CHTO    C7  797   2.087   8.453   7.558
    2CHTO   H20  798   2.088   8.557   7.520
    2CHTO    O4  799   1.974   8.382   7.502
    2CHTO   C14  800   1.989   8.338   7.366
    2CHTO   H27  801   2.012   8.426   7.302
    2CHTO   C18  802   1.852   8.284   7.320
    2CHTO   O13  803   1.852   8.250   7.181
    2CHTO    H7  804   1.768   8.217   7.156
    2CHTO    O2  805   2.070   8.456   7.722
    2CHTO    C1  806   1.937   8.469   7.777
    2CHTO   H14  807   1.873   8.389   7.734
    2CHTO    C2  808   1.866   8.609   7.752
    2CHTO   H15  809   1.940   8.686   7.779
    2CHTO    O6  810   1.834   8.622   7.612
    2CHTO    H1  811   1.800   8.708   7.595
    2CHTO    C3  812   1.736   8.624   7.846
    2CHTO   H16  813   1.662   8.548   7.819
    2CHTO    N1  814   1.670   8.758   7.830
    2CHTO    H8  815   1.738   8.836   7.858
    2CHTO    H9  816   1.582   8.762   7.892
    2CHTO    C4  817   1.780   8.593   7.993
    2CHTO   H17  818   1.861   8.660   8.020
    2CHTO    O1  819   1.824   8.456   7.997
    2CHTO    C5  820   1.950   8.437   7.929
    2CHTO   H18  821   2.025   8.504   7.972
    2CHTO   C16  822   1.995   8.291   7.951
    2CHTO   O11  823   2.007   8.260   8.090
    2CHTO    H5  824   2.034   8.171   8.100
    2CHTO    O3  825   1.674   8.608   8.090
    2CHTO    C6  826   1.704   8.570   8.229
    2CHTO   H19  827   1.772   8.485   8.235
    2CHTO    C8  828   1.769   8.687   8.311
    2CHTO   H21  829   1.704   8.775   8.304
    2CHTO    O7  830   1.897   8.716   8.251
    2CHTO    H2  831   1.935   8.792   8.292
    2CHTO   C12  832   1.784   8.645   8.463
    2CHTO   H25  833   1.857   8.561   8.465
    2CHTO    N3  834   1.844   8.755   8.546
    2CHTO   H12  835   1.855   8.722   8.648
    2CHTO   H13  836   1.782   8.843   8.542
    2CHTO   C15  837   1.646   8.594   8.517
    2CHTO   H28  838   1.573   8.675   8.524
    2CHTO   O10  839   1.657   8.523   8.652
    2CHTO    H4  840   1.685   8.584   8.718
    2CHTO    O5  841   1.594   8.489   8.433
    2CHTO   C10  842   1.571   8.527   8.297
    2CHTO   H23  843   1.500   8.609   8.295
    2CHTO   C17  844   1.508   8.408   8.222
    2CHTO   O12  845   1.382   8.372   8.278
    2CHTO    H6  846   1.345   8.300   8.230
    3CHTO  H203  847   4.966   9.295   5.634
    3CHTO   O82  848   5.054   9.265   5.646
    3CHTO  C123  849   5.128   9.282   5.524
    3CHTO  H227  850   5.126   9.388   5.495
    3CHTO   O77  851   5.263   9.242   5.561
    3CHTO  C118  852   5.360   9.260   5.457
    3CHTO  H222  853   5.361   9.365   5.425
    3CHTO  C125  854   5.502   9.224   5.515
    3CHTO   O84  855   5.539   9.315   5.619
    3CHTO  H205  856   5.624   9.292   5.652
    3CHTO  C114  857   5.326   9.170   5.337
    3CHTO  H218  858   5.333   9.066   5.369
    3CHTO  C116  859   5.179   9.192   5.287
    3CHTO  H220  860   5.174   9.291   5.235
    3CHTO   O79  861   5.149   9.093   5.187
    3CHTO  H201  862   5.065   9.109   5.149
    3CHTO  C120  863   5.076   9.189   5.407
    3CHTO  H224  864   5.072   9.084   5.442
    3CHTO   N21  865   4.939   9.226   5.362
    3CHTO  H211  866   4.925   9.333   5.368
    3CHTO  H212  867   4.866   9.175   5.422
    3CHTO   O75  868   5.428   9.199   5.239
    3CHTO  C112  869   5.453   9.082   5.124
    3CHTO  H216  870   5.369   9.083   5.053
    3CHTO   O73  871   5.463   8.955   5.192
    3CHTO  C113  872   5.476   8.844   5.102
    3CHTO  H217  873   5.394   8.847   5.027
    3CHTO  C124  874   5.458   8.715   5.182
    3CHTO   O83  875   5.329   8.708   5.244
    3CHTO  H204  876   5.321   8.626   5.289
    3CHTO  C109  877   5.613   8.852   5.031
    3CHTO  H213  878   5.690   8.847   5.109
    3CHTO  C110  879   5.623   8.988   4.954
    3CHTO  H214  880   5.554   8.984   4.869
    3CHTO   O78  881   5.755   9.002   4.899
    3CHTO  H200  882   5.760   9.077   4.844
    3CHTO  C111  883   5.588   9.109   5.046
    3CHTO  H215  884   5.667   9.119   5.122
    3CHTO   N19  885   5.580   9.238   4.974
    3CHTO  H207  886   5.558   9.318   5.043
    3CHTO  H208  887   5.503   9.234   4.898
    3CHTO   O74  888   5.628   8.736   4.942
    3CHTO  C115  889   5.779   8.698   4.907
    3CHTO  H219  890   5.850   8.771   4.946
    3CHTO   O76  891   5.822   8.562   4.971
    3CHTO  C122  892   5.737   8.451   4.937
    3CHTO  H226  893   5.652   8.454   5.005
    3CHTO  C126  894   5.813   8.318   4.970
    3CHTO   O85  895   5.936   8.302   4.897
    3CHTO  H206  896   5.998   8.367   4.925
    3CHTO  C121  897   5.687   8.452   4.786
    3CHTO  H225  898   5.692   8.349   4.746
    3CHTO   O81  899   5.549   8.490   4.783
    3CHTO  H202  900   5.496   8.426   4.828
    3CHTO  C119  901   5.778   8.544   4.697
    3CHTO  H223  902   5.877   8.499   4.708
    3CHTO  C117  903   5.788   8.693   4.749
    3CHTO  H221  904   5.708   8.758   4.715
    3CHTO   N20  905   5.914   8.758   4.699
    3CHTO  H209  906   5.916   8.756   4.591
    3CHTO  H210  907   6.000   8.708   4.739
    3CHTO   O80  908   5.756   8.531   4.542
    3CHTO  C103  909   5.611   8.519   4.482
    3CHTO  H190  910   5.553   8.444   4.537
    3CHTO  C101  911   5.525   8.652   4.470
    3CHTO  H188  912   5.585   8.728   4.419
    3CHTO   O68  913   5.488   8.704   4.610
    3CHTO  H168  914   5.444   8.786   4.603
    3CHTO   C99  915   5.394   8.624   4.381
    3CHTO  H186  916   5.331   8.548   4.433
    3CHTO   N17  917   5.307   8.744   4.359
    3CHTO  H174  918   5.362   8.820   4.304
    3CHTO  H175  919   5.273   8.783   4.454
    3CHTO   C97  920   5.436   8.559   4.246
    3CHTO  H184  921   5.495   8.632   4.188
    3CHTO   O64  922   5.510   8.439   4.273
    3CHTO  C104  923   5.636   8.462   4.338
    3CHTO  H191  924   5.697   8.532   4.282
    3CHTO  C108  925   5.714   8.330   4.340
    3CHTO   O71  926   5.754   8.293   4.208
    3CHTO  H171  927   5.802   8.212   4.211
    3CHTO   O62  928   5.324   8.510   4.170
    3CHTO   C91  929   5.337   8.510   4.027
    3CHTO  H178  930   5.348   8.614   3.996
    3CHTO   C92  931   5.199   8.461   3.971
    3CHTO  H179  932   5.117   8.519   4.018
    3CHTO   O66  933   5.193   8.494   3.831
    3CHTO  H166  934   5.107   8.476   3.797
    3CHTO   C93  935   5.178   8.306   3.989
    3CHTO  H180  936   5.099   8.276   3.918
    3CHTO   N16  937   5.127   8.266   4.122
    3CHTO  H172  938   5.197   8.294   4.199
    3CHTO  H173  939   5.110   8.159   4.125
    3CHTO   C94  940   5.310   8.227   3.952
    3CHTO  H181  941   5.361   8.187   4.040
    3CHTO   O61  942   5.406   8.310   3.884
    3CHTO   C95  943   5.454   8.420   3.964
    3CHTO  H182  944   5.516   8.379   4.045
    3CHTO  C106  945   5.551   8.507   3.877
    3CHTO   O69  946   5.667   8.432   3.838
    3CHTO  H169  947   5.722   8.486   3.785
    3CHTO   O63  948   5.271   8.115   3.860
    3CHTO   C96  949   5.366   7.995   3.854
    3CHTO  H183  950   5.398   7.971   3.955
    3CHTO   C98  951   5.495   8.021   3.767
    3CHTO  H185  952   5.553   8.105   3.808
    3CHTO   O67  953   5.579   7.905   3.779
    3CHTO  H167  954   5.662   7.921   3.737
    3CHTO  C102  955   5.458   8.043   3.612
    3CHTO  H189  956   5.544   8.005   3.555
    3CHTO   N18  957   5.441   8.184   3.571
    3CHTO  H176  958   5.533   8.238   3.588
    3CHTO  H177  959   5.361   8.230   3.629
    3CHTO  C105  960   5.334   7.956   3.575
    3CHTO  H192  961   5.242   8.015   3.586
    3CHTO   O65  962   5.321   7.840   3.661
    3CHTO  C100  963   5.281   7.874   3.794
    3CHTO  H187  964   5.175   7.905   3.789
    3CHTO  C107  965   5.284   7.747   3.883
    3CHTO   O70  966   5.412   7.684   3.883
    3CHTO  H170  967   5.410   7.609   3.939
    3CHTO   O57  968   5.351   7.915   3.428
    3CHTO   C85  969   5.262   7.815   3.376
    3CHTO  H157  970   5.282   7.722   3.433
    3CHTO   C83  971   5.301   7.784   3.228
    3CHTO  H155  972   5.407   7.760   3.225
    3CHTO   O56  973   5.283   7.902   3.148
    3CHTO  H135  974   5.341   7.970   3.175
    3CHTO   C81  975   5.219   7.661   3.181
    3CHTO  H153  976   5.248   7.576   3.243
    3CHTO   N14  977   5.261   7.617   3.045
    3CHTO  H141  978   5.367   7.602   3.042
    3CHTO  H142  979   5.235   7.692   2.972
    3CHTO   C79  980   5.063   7.686   3.203
    3CHTO  H151  981   5.029   7.613   3.276
    3CHTO   O52  982   5.033   7.819   3.258
    3CHTO   C86  983   5.107   7.853   3.379
    3CHTO  H158  984   5.095   7.964   3.387
    3CHTO   C90  985   5.035   7.794   3.503
    3CHTO   O60  986   4.905   7.850   3.520
    3CHTO  H138  987   4.864   7.814   3.596
    3CHTO   O50  988   4.979   7.669   3.088
    3CHTO   C73  989   4.840   7.697   3.070
    3CHTO  H145  990   4.820   7.804   3.087
    3CHTO   C74  991   4.753   7.614   3.169
    3CHTO  H146  992   4.784   7.640   3.271
    3CHTO   O54  993   4.617   7.659   3.155
    3CHTO  H133  994   4.562   7.615   3.218
    3CHTO   C75  995   4.773   7.461   3.139
    3CHTO  H147  996   4.879   7.436   3.154
    3CHTO   N13  997   4.696   7.371   3.229
    3CHTO  H139  998   4.727   7.388   3.331
    3CHTO  H140  999   4.716   7.268   3.203
    3CHTO   C76 1000   4.739   7.434   2.985
    3CHTO  H148 1001   4.633   7.455   2.969
    3CHTO   O49 1002   4.819   7.522   2.898
    3CHTO   C77 1003   4.801   7.662   2.923
    3CHTO  H149 1004   4.697   7.691   2.906
    3CHTO   C88 1005   4.886   7.744   2.825
    3CHTO   O58 1006   4.844   7.723   2.694
    3CHTO  H136 1007   4.894   7.777   2.636
    3CHTO   O51 1008   4.779   7.287   2.943
    3CHTO   C78 1009   4.723   7.251   2.805
    3CHTO  H150 1010   4.696   7.342   2.747
    3CHTO   C80 1011   4.599   7.161   2.817
    3CHTO  H152 1012   4.625   7.072   2.879
    3CHTO   O55 1013   4.500   7.237   2.888
    3CHTO  H134 1014   4.424   7.184   2.904
    3CHTO   C84 1015   4.548   7.114   2.674
    3CHTO  H156 1016   4.517   7.203   2.619
    3CHTO   N15 1017   4.429   7.024   2.681
    3CHTO  H143 1018   4.453   6.934   2.735
    3CHTO  H144 1019   4.397   6.997   2.583
    3CHTO   C87 1020   4.667   7.049   2.599
    3CHTO  H159 1021   4.698   6.958   2.650
    3CHTO   O53 1022   4.782   7.151   2.595
    3CHTO   C82 1023   4.833   7.178   2.726
    3CHTO  H154 1024   4.864   7.086   2.775
    3CHTO   C89 1025   4.959   7.266   2.712
    3CHTO   O59 1026   5.059   7.200   2.634
    3CHTO  H137 1027   5.135   7.255   2.626
    3CHTO   O45 1028   4.630   7.011   2.445
    3CHTO   C67 1029   4.743   6.996   2.358
    3CHTO  H124 1030   4.808   7.082   2.369
    3CHTO   C65 1031   4.825   6.866   2.391
    3CHTO  H122 1032   4.754   6.794   2.432
    3CHTO   O44 1033   4.919   6.904   2.494
    3CHTO  H102 1034   4.962   6.828   2.528
    3CHTO   C63 1035   4.884   6.796   2.262
    3CHTO  H120 1036   4.805   6.735   2.217
    3CHTO   N11 1037   4.991   6.693   2.287
    3CHTO  H108 1038   4.956   6.621   2.359
    3CHTO  H109 1039   5.079   6.740   2.323
    3CHTO   C61 1040   4.924   6.904   2.157
    3CHTO  H118 1041   4.959   6.849   2.067
    3CHTO   O40 1042   4.812   6.985   2.115
    3CHTO   C68 1043   4.698   6.999   2.206
    3CHTO  H125 1044   4.624   6.919   2.185
    3CHTO   C72 1045   4.630   7.133   2.168
    3CHTO   O48 1046   4.513   7.164   2.244
    3CHTO  H105 1047   4.476   7.244   2.213
    3CHTO   O38 1048   5.029   6.991   2.206
    3CHTO   C55 1049   5.109   7.055   2.105
    3CHTO  H112 1050   5.052   7.065   2.011
    3CHTO   C56 1051   5.244   6.977   2.085
    3CHTO  H113 1052   5.292   6.967   2.184
    3CHTO   O42 1053   5.215   6.843   2.039
    3CHTO  H100 1054   5.294   6.792   2.036
    3CHTO   C57 1055   5.339   7.053   1.984
    3CHTO  H114 1056   5.294   7.041   1.885
    3CHTO   N10 1057   5.475   6.993   1.976
    3CHTO  H106 1058   5.549   7.067   1.950
    3CHTO  H107 1059   5.477   6.914   1.901
    3CHTO   C58 1060   5.346   7.204   2.017
    3CHTO  H115 1061   5.410   7.219   2.108
    3CHTO   O37 1062   5.216   7.262   2.041
    3CHTO   C59 1063   5.144   7.200   2.148
    3CHTO  H116 1064   5.205   7.199   2.239
    3CHTO   C70 1065   5.017   7.281   2.178
    3CHTO   O46 1066   5.049   7.409   2.233
    3CHTO  H103 1067   4.969   7.457   2.248
    3CHTO   O39 1068   5.409   7.281   1.890
    3CHTO   C60 1069   5.419   7.425   1.897
    3CHTO  H117 1070   5.320   7.466   1.916
    3CHTO   C62 1071   5.515   7.473   2.011
    3CHTO  H119 1072   5.467   7.443   2.107
    3CHTO   O43 1073   5.641   7.404   1.998
    3CHTO  H101 1074   5.697   7.427   2.069
    3CHTO   C66 1075   5.528   7.633   2.005
    3CHTO  H123 1076   5.429   7.677   2.014
    3CHTO   N12 1077   5.607   7.688   2.118
    3CHTO  H110 1078   5.707   7.646   2.118
    3CHTO  H111 1079   5.557   7.667   2.212
    3CHTO   C69 1080   5.585   7.674   1.867
    3CHTO  H126 1081   5.682   7.622   1.849
    3CHTO   O41 1082   5.482   7.628   1.760
    3CHTO   C64 1083   5.465   7.477   1.758
    3CHTO  H121 1084   5.562   7.430   1.733
    3CHTO   C71 1085   5.362   7.438   1.649
    3CHTO   O47 1086   5.413   7.468   1.519
    3CHTO  H104 1087   5.349   7.445   1.454
    3CHTO   O34 1088   5.610   7.829   1.853
    3CHTO   C49 1089   5.697   7.896   1.744
    3CHTO   H91 1090   5.800   7.865   1.761
    3CHTO   C47 1091   5.683   8.049   1.760
    3CHTO   H89 1092   5.750   8.093   1.682
    3CHTO   O33 1093   5.730   8.090   1.889
    3CHTO   H70 1094   5.822   8.074   1.897
    3CHTO   C45 1095   5.529   8.094   1.737
    3CHTO   H87 1096   5.476   8.086   1.833
    3CHTO    N8 1097   5.526   8.236   1.695
    3CHTO   H75 1098   5.576   8.298   1.768
    3CHTO   H76 1099   5.424   8.269   1.684
    3CHTO   C43 1100   5.456   7.990   1.638
    3CHTO   H85 1101   5.421   7.910   1.704
    3CHTO   O29 1102   5.550   7.943   1.541
    3CHTO   C50 1103   5.654   7.861   1.598
    3CHTO   H92 1104   5.621   7.756   1.596
    3CHTO   C54 1105   5.775   7.860   1.502
    3CHTO   O36 1106   5.739   7.805   1.375
    3CHTO   H72 1107   5.813   7.804   1.318
    3CHTO   O27 1108   5.336   8.039   1.577
    3CHTO   C37 1109   5.269   7.974   1.467
    3CHTO   H79 1110   5.342   7.946   1.390
    3CHTO   C38 1111   5.199   7.841   1.512
    3CHTO   H80 1112   5.138   7.863   1.601
    3CHTO   O31 1113   5.303   7.748   1.548
    3CHTO   H68 1114   5.265   7.671   1.586
    3CHTO   C39 1115   5.108   7.782   1.398
    3CHTO   H81 1116   5.173   7.751   1.316
    3CHTO    N7 1117   5.031   7.660   1.440
    3CHTO   H73 1118   4.972   7.623   1.358
    3CHTO   H74 1119   4.967   7.684   1.524
    3CHTO   C40 1120   5.013   7.895   1.342
    3CHTO   H82 1121   4.942   7.926   1.419
    3CHTO   O26 1122   5.096   8.005   1.298
    3CHTO   C41 1123   5.167   8.071   1.406
    3CHTO   H83 1124   5.095   8.103   1.483
    3CHTO   C52 1125   5.235   8.197   1.348
    3CHTO   O35 1126   5.138   8.295   1.297
    3CHTO   H71 1127   5.184   8.369   1.262
    3CHTO   O28 1128   4.940   7.855   1.224
    3CHTO   C42 1129   4.833   7.939   1.169
    3CHTO   H84 1130   4.808   7.890   1.075
    3CHTO   C44 1131   4.871   8.087   1.132
    3CHTO   H86 1132   4.906   8.137   1.222
    3CHTO   O32 1133   4.979   8.079   1.037
    3CHTO   H69 1134   5.013   8.165   1.020
    3CHTO   C48 1135   4.749   8.170   1.075
    3CHTO   H90 1136   4.726   8.132   0.976
    3CHTO    N9 1137   4.785   8.315   1.056
    3CHTO   H77 1138   4.811   8.360   1.151
    3CHTO   H78 1139   4.701   8.368   1.012
    3CHTO   C51 1140   4.624   8.150   1.167
    3CHTO   H93 1141   4.645   8.196   1.264
    3CHTO   O30 1142   4.598   8.009   1.179
    3CHTO   C46 1143   4.703   7.939   1.256
    3CHTO   H88 1144   4.721   7.992   1.350
    3CHTO   C53 1145   4.648   7.798   1.284
    3CHTO   O72 1146   4.717   7.735   1.393
    3CHTO  H199 1147   4.680   7.650   1.408
    3CHTO   O22 1148   4.504   8.205   1.110
    3CHTO   C31 1149   4.391   8.243   1.197
    3CHTO   H59 1150   4.309   8.274   1.128
    3CHTO   C29 1151   4.336   8.127   1.284
    3CHTO   H57 1152   4.421   8.087   1.341
    3CHTO   O21 1153   4.292   8.022   1.196
    3CHTO   H37 1154   4.217   8.048   1.147
    3CHTO   C27 1155   4.223   8.172   1.385
    3CHTO   H55 1156   4.132   8.194   1.328
    3CHTO    N5 1157   4.192   8.067   1.485
    3CHTO   H43 1158   4.280   8.045   1.544
    3CHTO   H44 1159   4.157   7.977   1.435
    3CHTO   C25 1160   4.265   8.305   1.457
    3CHTO   H53 1161   4.351   8.284   1.522
    3CHTO   O17 1162   4.305   8.405   1.360
    3CHTO   C32 1163   4.422   8.368   1.285
    3CHTO   H60 1164   4.502   8.343   1.354
    3CHTO   C36 1165   4.466   8.488   1.200
    3CHTO   O25 1166   4.513   8.595   1.284
    3CHTO   H40 1167   4.540   8.667   1.230
    3CHTO   O15 1168   4.146   8.363   1.543
    3CHTO   C19 1169   4.165   8.462   1.649
    3CHTO   H47 1170   4.064   8.475   1.691
    3CHTO   C20 1171   4.259   8.414   1.763
    3CHTO   H48 1172   4.357   8.383   1.725
    3CHTO   O19 1173   4.195   8.299   1.821
    3CHTO   H35 1174   4.252   8.259   1.884
    3CHTO   C21 1175   4.282   8.526   1.872
    3CHTO   H49 1176   4.189   8.544   1.925
    3CHTO    N4 1177   4.383   8.487   1.974
    3CHTO   H41 1178   4.394   8.566   2.047
    3CHTO   H42 1179   4.478   8.469   1.926
    3CHTO   C22 1180   4.319   8.659   1.800
    3CHTO   H50 1181   4.416   8.646   1.750
    3CHTO   O14 1182   4.219   8.694   1.704
    3CHTO   C23 1183   4.208   8.601   1.595
    3CHTO   H51 1184   4.306   8.597   1.545
    3CHTO   C34 1185   4.105   8.655   1.496
    3CHTO   O23 1186   4.147   8.779   1.440
    3CHTO   H38 1187   4.220   8.766   1.382
    3CHTO   O16 1188   4.322   8.771   1.890
    3CHTO   C24 1189   4.416   8.886   1.839
    3CHTO   H52 1190   4.444   8.874   1.735
    3CHTO   C26 1191   4.543   8.887   1.927
    3CHTO   H54 1192   4.512   8.890   2.034
    3CHTO   O20 1193   4.614   8.764   1.904
    3CHTO   H36 1194   4.688   8.758   1.962
    3CHTO   C30 1195   4.631   9.012   1.898
    3CHTO   H58 1196   4.677   9.003   1.798
    3CHTO    N6 1197   4.744   9.022   1.994
    3CHTO   H45 1198   4.706   9.034   2.095
    3CHTO   H46 1199   4.807   9.106   1.970
    3CHTO   C33 1200   4.545   9.142   1.895
    3CHTO   H61 1201   4.509   9.165   1.997
    3CHTO   O18 1202   4.431   9.125   1.809
    3CHTO   C28 1203   4.341   9.021   1.850
    3CHTO   H56 1204   4.308   9.036   1.953
    3CHTO   C35 1205   4.218   9.022   1.756
    3CHTO   O24 1206   4.143   9.144   1.764
    3CHTO   H39 1207   4.069   9.138   1.706
    3CHTO    O9 1208   4.624   9.256   1.856
    3CHTO   C13 1209   4.554   9.396   1.884
    3CHTO   H26 1210   4.470   9.380   1.955
    3CHTO   C11 1211   4.504   9.459   1.747
    3CHTO   H24 1212   4.412   9.407   1.718
    3CHTO    O8 1213   4.603   9.436   1.644
    3CHTO    H3 1214   4.570   9.466   1.561
    3CHTO    C9 1215   4.475   9.610   1.770
    3CHTO   H22 1216   4.406   9.613   1.856
    3CHTO    N2 1217   4.398   9.673   1.660
    3CHTO   H10 1218   4.307   9.617   1.641
    3CHTO   H11 1219   4.459   9.676   1.570
    3CHTO    C7 1220   4.610   9.683   1.811
    3CHTO   H20 1221   4.577   9.760   1.884
    3CHTO    O4 1222   4.706   9.595   1.872
    3CHTO   C14 1223   4.652   9.495   1.961
    3CHTO   H27 1224   4.595   9.547   2.041
    3CHTO   C18 1225   4.771   9.425   2.030
    3CHTO   O13 1226   4.726   9.339   2.135
    3CHTO    H7 1227   4.799   9.298   2.175
    3CHTO    O2 1228   4.682   9.758   1.685
    3CHTO    C1 1229   4.816   9.806   1.704
    3CHTO   H14 1230   4.879   9.726   1.749
    3CHTO    C2 1231   4.827   9.936   1.796
    3CHTO   H15 1232   4.748   0.004   1.761
    3CHTO    O6 1233   4.801   9.898   1.932
    3CHTO    H1 1234   4.800   9.974   1.987
    3CHTO    C3 1235   4.971   0.006   1.780
    3CHTO   H16 1236   5.048   9.940   1.823
    3CHTO    N1 1237   4.978   0.136   1.853
    3CHTO    H8 1238   4.905   0.205   1.813
    3CHTO    H9 1239   5.077   0.178   1.845
    3CHTO    C4 1240   5.006   0.019   1.628
    3CHTO   H17 1241   4.930   0.082   1.581
    3CHTO    O1 1242   5.005   9.889   1.568
    3CHTO    C5 1243   4.874   9.832   1.562
    3CHTO   H18 1244   4.806   9.900   1.511
    3CHTO   C16 1245   4.880   9.699   1.483
    3CHTO   O11 1246   4.914   9.724   1.346
    3CHTO    H5 1247   4.916   9.643   1.299
    3CHTO    O3 1248   5.137   0.076   1.605
    3CHTO    C6 1249   5.165   0.110   1.465
    3CHTO   H19 1250   5.109   0.048   1.395
    3CHTO    C8 1251   5.134   0.260   1.433
    3CHTO   H21 1252   5.194   0.323   1.499
    3CHTO    O7 1253   4.994   0.283   1.458
    3CHTO    H2 1254   4.974   0.374   1.448
    3CHTO   C12 1255   5.173   0.290   1.282
    3CHTO   H25 1256   5.105   0.229   1.220
    3CHTO    N3 1257   5.148   0.434   1.246
    3CHTO   H12 1258   5.172   0.450   1.142
    3CHTO   H13 1259   5.206   0.499   1.309
    3CHTO   C15 1260   5.321   0.244   1.255
    3CHTO   H28 1261   5.394   0.311   1.303
    3CHTO   O10 1262   5.351   0.235   1.106
    3CHTO    H4 1263   5.346   0.320   1.067
    3CHTO    O5 1264   5.344   0.109   1.297
    3CHTO   C10 1265   5.316   0.084   1.436
    3CHTO   H23 1266   5.377   0.151   1.496
    3CHTO   C17 1267   5.357   9.940   1.470
    3CHTO   O12 1268   5.498   9.922   1.457
    3CHTO    H6 1269   5.521   9.834   1.480
    4CHTO  H203 1270   2.199   1.348   2.823
    4CHTO   O82 1271   2.191   1.352   2.916
    4CHTO  C123 1272   2.196   1.219   2.971
    4CHTO  H227 1273   2.291   1.172   2.942
    4CHTO   O77 1274   2.193   1.242   3.115
    4CHTO  C118 1275   2.219   1.124   3.192
    4CHTO  H222 1276   2.317   1.083   3.163
    4CHTO  C125 1277   2.226   1.166   3.344
    4CHTO   O84 1278   2.332   1.259   3.367
    4CHTO  H205 1279   2.335   1.281   3.458
    4CHTO  C114 1280   2.109   1.018   3.169
    4CHTO  H218 1281   2.016   1.055   3.213
    4CHTO  C116 1282   2.082   0.993   3.017
    4CHTO  H220 1283   2.165   0.929   2.976
    4CHTO   O79 1284   1.962   0.915   3.005
    4CHTO  H201 1285   1.947   0.891   2.916
    4CHTO  C120 1286   2.073   1.128   2.935
    4CHTO  H224 1287   1.978   1.178   2.967
    4CHTO   N21 1288   2.061   1.103   2.789
    4CHTO  H211 1289   2.160   1.097   2.744
    4CHTO  H212 1290   2.004   1.182   2.742
    4CHTO   O75 1291   2.158   0.905   3.244
    4CHTO  C112 1292   2.065   0.769   3.253
    4CHTO  H216 1293   2.047   0.731   3.151
    4CHTO   O73 1294   1.941   0.804   3.319
    4CHTO  C113 1295   1.853   0.692   3.337
    4CHTO  H217 1296   1.835   0.645   3.237
    4CHTO  C124 1297   1.717   0.741   3.388
    4CHTO   O83 1298   1.644   0.812   3.288
    4CHTO  H204 1299   1.562   0.842   3.323
    4CHTO  C109 1300   1.916   0.588   3.432
    4CHTO  H213 1301   1.934   0.639   3.528
    4CHTO  C110 1302   2.051   0.539   3.370
    4CHTO  H214 1303   2.028   0.483   3.279
    4CHTO   O78 1304   2.115   0.448   3.461
    4CHTO  H200 1305   2.191   0.410   3.422
    4CHTO  C111 1306   2.143   0.660   3.337
    4CHTO  H215 1307   2.174   0.707   3.431
    4CHTO   N19 1308   2.268   0.621   3.266
    4CHTO  H207 1309   2.329   0.708   3.248
    4CHTO  H208 1310   2.243   0.574   3.172
    4CHTO   O74 1311   1.823   0.478   3.454
    4CHTO  C115 1312   1.840   0.400   3.593
    4CHTO  H219 1313   1.940   0.412   3.634
    4CHTO   O76 1314   1.743   0.455   3.703
    4CHTO  C122 1315   1.604   0.450   3.669
    4CHTO  H226 1316   1.580   0.544   3.618
    4CHTO  C126 1317   1.520   0.451   3.802
    4CHTO   O85 1318   1.551   0.342   3.889
    4CHTO  H206 1319   1.639   0.350   3.921
    4CHTO  C121 1320   1.562   0.327   3.577
    4CHTO  H225 1321   1.461   0.293   3.608
    4CHTO   O81 1322   1.550   0.370   3.440
    4CHTO  H202 1323   1.482   0.434   3.432
    4CHTO  C119 1324   1.662   0.209   3.594
    4CHTO  H223 1325   1.657   0.188   3.701
    4CHTO  C117 1326   1.813   0.248   3.562
    4CHTO  H221 1327   1.842   0.238   3.458
    4CHTO   N20 1328   1.907   0.157   3.635
    4CHTO  H209 1329   1.887   0.054   3.608
    4CHTO  H210 1330   1.896   0.170   3.742
    4CHTO   O80 1331   1.614   0.074   3.534
    4CHTO  C103 1332   1.586   0.058   3.375
    4CHTO  H190 1333   1.501   0.118   3.345
    4CHTO  C101 1334   1.707   0.084   3.275
    4CHTO  H188 1335   1.799   0.050   3.322
    4CHTO   O68 1336   1.720   0.237   3.249
    4CHTO  H168 1337   1.797   0.255   3.199
    4CHTO   C99 1338   1.691   0.007   3.135
    4CHTO  H186 1339   1.608   0.053   3.078
    4CHTO   N17 1340   1.813   0.013   3.047
    4CHTO  H174 1341   1.896   9.965   3.095
    4CHTO  H175 1342   1.836   0.116   3.023
    4CHTO   C97 1343   1.648   9.861   3.161
    4CHTO  H184 1344   1.727   9.808   3.218
    4CHTO   O64 1345   1.524   9.865   3.233
    4CHTO  C104 1346   1.541   9.907   3.369
    4CHTO  H191 1347   1.616   9.845   3.420
    4CHTO  C108 1348   1.409   9.884   3.444
    4CHTO   O71 1349   1.377   9.745   3.451
    4CHTO  H171 1350   1.298   9.734   3.501
    4CHTO   O62 1351   1.613   9.788   3.042
    4CHTO   C91 1352   1.630   9.644   3.043
    4CHTO  H178 1353   1.737   9.625   3.042
    4CHTO   C92 1354   1.573   9.593   2.907
    4CHTO  H179 1355   1.622   9.647   2.824
    4CHTO   O66 1356   1.611   9.455   2.890
    4CHTO  H166 1357   1.587   9.425   2.805
    4CHTO   C93 1358   1.415   9.603   2.901
    4CHTO  H180 1359   1.380   9.528   2.829
    4CHTO   N16 1360   1.367   9.733   2.847
    4CHTO  H172 1361   1.400   9.814   2.910
    4CHTO  H173 1362   1.260   9.732   2.838
    4CHTO   C94 1363   1.351   9.572   3.042
    4CHTO  H181 1364   1.330   9.664   3.099
    4CHTO   O61 1365   1.441   9.494   3.122
    4CHTO   C95 1366   1.560   9.563   3.163
    4CHTO  H182 1367   1.535   9.631   3.244
    4CHTO  C106 1368   1.658   9.458   3.225
    4CHTO   O69 1369   1.603   9.399   3.343
    4CHTO  H169 1370   1.663   9.336   3.378
    4CHTO   O63 1371   1.221   9.493   3.021
    4CHTO   C96 1372   1.134   9.466   3.152
    4CHTO  H183 1373   1.125   9.561   3.206
    4CHTO   C98 1374   1.195   9.359   3.249
    4CHTO  H185 1375   1.293   9.391   3.286
    4CHTO   O67 1376   1.111   9.352   3.366
    4CHTO  H167 1377   1.149   9.294   3.429
    4CHTO  C102 1378   1.200   9.214   3.180
    4CHTO  H189 1379   1.189   9.141   3.261
    4CHTO   N18 1380   1.329   9.180   3.113
    4CHTO  H176 1381   1.409   9.180   3.186
    4CHTO  H177 1382   1.350   9.252   3.036
    4CHTO  C105 1383   1.080   9.198   3.083
    4CHTO  H192 1384   1.110   9.230   2.983
    4CHTO   O65 1385   0.966   9.279   3.121
    4CHTO  C100 1386   0.990   9.420   3.101
    4CHTO  H187 1387   0.985   9.438   2.992
    4CHTO  C107 1388   0.874   9.502   3.163
    4CHTO   O70 1389   0.857   9.477   3.303
    4CHTO  H170 1390   0.785   9.527   3.336
    4CHTO   O57 1391   1.045   9.047   3.082
    4CHTO   C85 1392   0.959   8.998   2.978
    4CHTO  H157 1393   0.859   9.042   2.997
    4CHTO   C83 1394   0.943   8.843   2.995
    4CHTO  H155 1395   0.908   8.824   3.097
    4CHTO   O56 1396   1.074   8.783   2.985
    4CHTO  H135 1397   1.129   8.812   3.056
    4CHTO   C81 1398   0.836   8.790   2.895
    4CHTO  H153 1399   0.738   8.822   2.931
    4CHTO   N14 1400   0.823   8.642   2.899
    4CHTO  H141 1401   0.809   8.609   2.999
    4CHTO  H142 1402   0.912   8.597   2.860
    4CHTO   C79 1403   0.856   8.855   2.751
    4CHTO  H151 1404   0.784   8.936   2.744
    4CHTO   O52 1405   0.989   8.916   2.736
    4CHTO   C86 1406   1.008   9.027   2.829
    4CHTO  H158 1407   1.118   9.043   2.827
    4CHTO   C90 1408   0.945   9.156   2.771
    4CHTO   O60 1409   1.007   9.193   2.648
    4CHTO  H138 1410   0.966   9.271   2.614
    4CHTO   O50 1411   0.831   8.773   2.636
    4CHTO   C73 1412   0.788   8.815   2.505
    4CHTO  H145 1413   0.867   8.874   2.456
    4CHTO   C74 1414   0.659   8.904   2.515
    4CHTO  H146 1415   0.682   8.993   2.575
    4CHTO   O54 1416   0.625   8.954   2.384
    4CHTO  H133 1417   0.550   9.009   2.389
    4CHTO   C75 1418   0.546   8.816   2.582
    4CHTO  H147 1419   0.583   8.779   2.679
    4CHTO   N13 1420   0.422   8.890   2.612
    4CHTO  H139 1421   0.443   8.972   2.680
    4CHTO  H140 1422   0.350   8.825   2.659
    4CHTO   C76 1423   0.522   8.689   2.488
    4CHTO  H148 1424   0.492   8.727   2.390
    4CHTO   O49 1425   0.647   8.614   2.474
    4CHTO   C77 1426   0.756   8.690   2.418
    4CHTO  H149 1427   0.729   8.723   2.317
    4CHTO   C88 1428   0.879   8.600   2.401
    4CHTO   O58 1429   0.852   8.490   2.307
    4CHTO  H136 1430   0.928   8.436   2.300
    4CHTO   O51 1431   0.414   8.590   2.551
    4CHTO   C78 1432   0.391   8.460   2.467
    4CHTO  H150 1433   0.487   8.423   2.425
    4CHTO   C80 1434   0.292   8.482   2.351
    4CHTO  H152 1435   0.196   8.523   2.393
    4CHTO   O55 1436   0.347   8.582   2.263
    4CHTO  H134 1437   0.285   8.604   2.196
    4CHTO   C84 1438   0.263   8.346   2.275
    4CHTO  H156 1439   0.356   8.311   2.232
    4CHTO   N15 1440   0.167   8.362   2.161
    4CHTO  H143 1441   0.072   8.397   2.198
    4CHTO  H144 1442   0.153   8.269   2.112
    4CHTO   C87 1443   0.216   8.241   2.378
    4CHTO  H159 1444   0.120   8.272   2.422
    4CHTO   O53 1445   0.325   8.230   2.488
    4CHTO   C82 1446   0.338   8.351   2.562
    4CHTO  H154 1447   0.242   8.381   2.605
    4CHTO   C89 1448   0.435   8.328   2.680
    4CHTO   O59 1449   0.384   8.230   2.770
    4CHTO  H137 1450   0.446   8.217   2.840
    4CHTO   O45 1451   0.197   8.092   2.311
    4CHTO   C67 1452   0.193   7.984   2.405
    4CHTO  H124 1453   0.285   7.986   2.464
    4CHTO   C65 1454   0.071   7.995   2.503
    4CHTO  H122 1455   9.993   8.050   2.449
    4CHTO   O44 1456   0.115   8.074   2.615
    4CHTO  H102 1457   0.041   8.097   2.669
    4CHTO   C63 1458   0.005   7.855   2.536
    4CHTO  H120 1459   9.944   7.824   2.451
    4CHTO   N11 1460   9.904   7.854   2.647
    4CHTO  H108 1461   9.829   7.928   2.628
    4CHTO  H109 1462   9.952   7.875   2.740
    4CHTO   C61 1463   0.118   7.748   2.552
    4CHTO  H118 1464   0.069   7.651   2.569
    4CHTO   O40 1465   0.197   7.733   2.430
    4CHTO   C68 1466   0.195   7.843   2.332
    4CHTO  H125 1467   0.106   7.832   2.267
    4CHTO   C72 1468   0.320   7.823   2.242
    4CHTO   O48 1469   0.326   7.913   2.131
    4CHTO  H105 1470   0.403   7.896   2.081
    4CHTO   O38 1471   0.208   7.779   2.661
    4CHTO   C55 1472   0.283   7.666   2.711
    4CHTO  H112 1473   0.280   7.583   2.639
    4CHTO   C56 1474   0.230   7.622   2.854
    4CHTO  H113 1475   0.239   7.709   2.921
    4CHTO   O42 1476   0.089   7.591   2.846
    4CHTO  H100 1477   0.055   7.573   2.931
    4CHTO   C57 1478   0.315   7.500   2.907
    4CHTO  H114 1479   0.293   7.416   2.842
    4CHTO   N10 1480   0.280   7.459   3.046
    4CHTO  H106 1481   0.364   7.415   3.096
    4CHTO  H107 1482   0.199   7.387   3.043
    4CHTO   C58 1483   0.466   7.533   2.896
    4CHTO  H115 1484   0.493   7.610   2.973
    4CHTO   O37 1485   0.502   7.582   2.766
    4CHTO   C59 1486   0.433   7.702   2.728
    4CHTO  H116 1487   0.446   7.779   2.804
    4CHTO   C70 1488   0.494   7.753   2.597
    4CHTO   O46 1489   0.633   7.783   2.612
    4CHTO  H103 1490   0.667   7.816   2.531
    4CHTO   O39 1491   0.553   7.400   2.919
    4CHTO   C60 1492   0.695   7.413   2.904
    4CHTO  H117 1493   0.718   7.455   2.806
    4CHTO   C62 1494   0.758   7.508   3.012
    4CHTO  H119 1495   0.719   7.610   2.991
    4CHTO   O43 1496   0.712   7.465   3.141
    4CHTO  H101 1497   0.740   7.526   3.207
    4CHTO   C66 1498   0.918   7.509   3.001
    4CHTO  H123 1499   0.946   7.547   2.903
    4CHTO   N12 1500   0.982   7.599   3.100
    4CHTO  H110 1501   0.954   7.570   3.200
    4CHTO  H111 1502   0.953   7.702   3.080
    4CHTO   C69 1503   0.970   7.363   3.011
    4CHTO  H126 1504   0.941   7.319   3.109
    4CHTO   O41 1505   0.906   7.281   2.897
    4CHTO   C64 1506   0.759   7.272   2.909
    4CHTO  H121 1507   0.732   7.224   3.006
    4CHTO   C71 1508   0.703   7.182   2.795
    4CHTO   O47 1509   0.752   7.049   2.808
    4CHTO  H104 1510   0.718   6.996   2.738
    4CHTO   O34 1511   1.122   7.354   2.998
    4CHTO   C49 1512   1.211   7.236   3.029
    4CHTO   H91 1513   1.198   7.212   3.135
    4CHTO   C47 1514   1.357   7.279   3.000
    4CHTO   H89 1515   1.419   7.193   3.035
    4CHTO   O33 1516   1.392   7.395   3.078
    4CHTO   H70 1517   1.390   7.374   3.170
    4CHTO   C45 1518   1.379   7.309   2.842
    4CHTO   H87 1519   1.358   7.416   2.824
    4CHTO    N8 1520   1.521   7.283   2.808
    4CHTO   H75 1521   1.585   7.344   2.870
    4CHTO   H76 1522   1.538   7.307   2.704
    4CHTO   C43 1523   1.269   7.229   2.755
    4CHTO   H85 1524   1.180   7.292   2.758
    4CHTO   O29 1525   1.247   7.101   2.815
    4CHTO   C50 1526   1.179   7.110   2.941
    4CHTO   H92 1527   1.071   7.108   2.922
    4CHTO   C54 1528   1.201   6.978   3.018
    4CHTO   O36 1529   1.146   6.866   2.948
    4CHTO   H72 1530   1.162   6.788   2.997
    4CHTO   O27 1531   1.298   7.217   2.615
    4CHTO   C37 1532   1.226   7.128   2.528
    4CHTO   H79 1533   1.218   7.028   2.574
    4CHTO   C38 1534   1.080   7.176   2.501
    4CHTO   H80 1535   1.084   7.282   2.470
    4CHTO   O31 1536   1.007   7.167   2.625
    4CHTO   H68 1537   0.922   7.205   2.616
    4CHTO   C39 1538   1.009   7.091   2.389
    4CHTO   H81 1539   0.993   6.991   2.430
    4CHTO    N7 1540   0.873   7.145   2.352
    4CHTO   H73 1541   0.828   7.082   2.277
    4CHTO   H74 1542   0.883   7.246   2.314
    4CHTO   C40 1543   1.103   7.076   2.264
    4CHTO   H82 1544   1.115   7.172   2.215
    4CHTO   O26 1545   1.230   7.023   2.307
    4CHTO   C41 1546   1.303   7.113   2.394
    4CHTO   H83 1547   1.314   7.212   2.346
    4CHTO   C52 1548   1.445   7.055   2.416
    4CHTO   O35 1549   1.522   7.048   2.291
    4CHTO   H71 1550   1.607   7.013   2.308
    4CHTO   O28 1551   1.049   6.982   2.169
    4CHTO   C42 1552   1.112   6.949   2.041
    4CHTO   H84 1553   1.040   6.882   1.993
    4CHTO   C44 1554   1.247   6.870   2.048
    4CHTO   H86 1555   1.322   6.932   2.097
    4CHTO   O32 1556   1.223   6.754   2.129
    4CHTO   H69 1557   1.304   6.707   2.144
    4CHTO   C48 1558   1.302   6.833   1.904
    4CHTO   H90 1559   1.237   6.757   1.862
    4CHTO    N9 1560   1.439   6.770   1.911
    4CHTO   H77 1561   1.510   6.838   1.954
    4CHTO   H78 1562   1.470   6.741   1.811
    4CHTO   C51 1563   1.301   6.960   1.812
    4CHTO   H93 1564   1.377   7.030   1.847
    4CHTO   O30 1565   1.169   7.017   1.815
    4CHTO   C46 1566   1.131   7.071   1.944
    4CHTO   H88 1567   1.211   7.136   1.982
    4CHTO   C53 1568   1.003   7.153   1.917
    4CHTO   O72 1569   0.966   7.234   2.028
    4CHTO  H199 1570   0.887   7.281   2.008
    4CHTO   O22 1571   1.324   6.925   1.673
    4CHTO   C31 1572   1.344   7.027   1.568
    4CHTO   H59 1573   1.368   6.971   1.476
    4CHTO   C29 1574   1.219   7.114   1.538
    4CHTO   H57 1575   1.190   7.165   1.631
    4CHTO   O21 1576   1.111   7.025   1.504
    4CHTO   H37 1577   1.128   6.983   1.422
    4CHTO   C27 1578   1.246   7.223   1.427
    4CHTO   H55 1579   1.268   7.172   1.332
    4CHTO    N5 1580   1.130   7.314   1.406
    4CHTO   H43 1581   1.106   7.365   1.498
    4CHTO   H44 1582   1.044   7.257   1.372
    4CHTO   C25 1583   1.374   7.302   1.469
    4CHTO   H53 1584   1.353   7.350   1.566
    4CHTO   O17 1585   1.486   7.211   1.485
    4CHTO   C32 1586   1.468   7.119   1.594
    4CHTO   H60 1587   1.452   7.175   1.687
    4CHTO   C36 1588   1.598   7.036   1.609
    4CHTO   O25 1589   1.709   7.119   1.644
    4CHTO   H40 1590   1.786   7.067   1.652
    4CHTO   O15 1591   1.415   7.412   1.364
    4CHTO   C19 1592   1.505   7.521   1.402
    4CHTO   H47 1593   1.493   7.594   1.320
    4CHTO   C20 1594   1.468   7.591   1.537
    4CHTO   H48 1595   1.472   7.520   1.621
    4CHTO   O19 1596   1.333   7.639   1.523
    4CHTO   H35 1597   1.304   7.675   1.605
    4CHTO   C21 1598   1.569   7.708   1.570
    4CHTO   H49 1599   1.556   7.786   1.495
    4CHTO    N4 1600   1.543   7.770   1.702
    4CHTO   H41 1601   1.613   7.851   1.719
    4CHTO   H42 1602   1.555   7.696   1.781
    4CHTO   C22 1603   1.714   7.655   1.556
    4CHTO   H50 1604   1.732   7.581   1.634
    4CHTO   O14 1605   1.736   7.595   1.427
    4CHTO   C23 1606   1.655   7.480   1.401
    4CHTO   H51 1607   1.677   7.405   1.480
    4CHTO   C34 1608   1.695   7.419   1.266
    4CHTO   O23 1609   1.830   7.370   1.270
    4CHTO   H38 1610   1.851   7.332   1.186
    4CHTO   O16 1611   1.809   7.763   1.564
    4CHTO   C24 1612   1.949   7.719   1.615
    4CHTO   H52 1613   1.969   7.613   1.596
    4CHTO   C26 1614   1.960   7.747   1.766
    4CHTO   H54 1615   1.931   7.854   1.784
    4CHTO   O20 1616   1.865   7.663   1.835
    4CHTO   H36 1617   1.864   7.684   1.926
    4CHTO   C30 1618   2.106   7.726   1.818
    4CHTO   H58 1619   2.132   7.619   1.813
    4CHTO    N6 1620   2.120   7.766   1.961
    4CHTO   H45 1621   2.098   7.871   1.973
    4CHTO   H46 1622   2.220   7.746   1.995
    4CHTO   C33 1623   2.208   7.800   1.725
    4CHTO   H61 1624   2.194   7.909   1.734
    4CHTO   O18 1625   2.185   7.762   1.588
    4CHTO   C28 1626   2.056   7.799   1.537
    4CHTO   H56 1627   2.038   7.906   1.552
    4CHTO   C35 1628   2.050   7.768   1.386
    4CHTO   O24 1629   2.144   7.847   1.312
    4CHTO   H39 1630   2.138   7.824   1.221
    4CHTO    O9 1631   2.344   7.775   1.764
    4CHTO   C13 1632   2.453   7.853   1.673
    4CHTO   H26 1633   2.404   7.944   1.631
    4CHTO   C11 1634   2.506   7.756   1.559
    4CHTO   H24 1635   2.435   7.759   1.475
    4CHTO    O8 1636   2.511   7.620   1.608
    4CHTO    H3 1637   2.532   7.562   1.538
    4CHTO    C9 1638   2.645   7.806   1.511
    4CHTO   H22 1639   2.630   7.912   1.484
    4CHTO    N2 1640   2.692   7.743   1.385
    4CHTO   H10 1641   2.618   7.754   1.308
    4CHTO   H11 1642   2.713   7.638   1.402
    4CHTO    C7 1643   2.747   7.800   1.632
    4CHTO   H20 1644   2.815   7.885   1.614
    4CHTO    O4 1645   2.683   7.816   1.761
    4CHTO   C14 1646   2.572   7.907   1.763
    4CHTO   H27 1647   2.607   8.005   1.722
    4CHTO   C18 1648   2.532   7.932   1.911
    4CHTO   O13 1649   2.427   8.028   1.920
    4CHTO    H7 1650   2.405   8.043   2.011
    4CHTO    O2 1651   2.839   7.661   1.636
    4CHTO    C1 1652   2.919   7.638   1.753
    4CHTO   H14 1653   2.853   7.633   1.842
    4CHTO    C2 1654   3.031   7.748   1.780
    4CHTO   H15 1655   3.084   7.761   1.684
    4CHTO    O6 1656   2.967   7.871   1.817
    4CHTO    H1 1657   3.031   7.939   1.825
    4CHTO    C3 1658   3.133   7.701   1.895
    4CHTO   H16 1659   3.081   7.707   1.992
    4CHTO    N1 1660   3.251   7.794   1.904
    4CHTO    H8 1661   3.306   7.793   1.810
    4CHTO    H9 1662   3.317   7.763   1.984
    4CHTO    C4 1663   3.176   7.550   1.878
    4CHTO   H17 1664   3.244   7.542   1.793
    4CHTO    O1 1665   3.060   7.467   1.858
    4CHTO    C5 1666   2.987   7.499   1.739
    4CHTO   H18 1667   3.055   7.504   1.654
    4CHTO   C16 1668   2.883   7.388   1.713
    4CHTO   O11 1669   2.946   7.264   1.684
    4CHTO    H5 1670   2.881   7.197   1.673
    4CHTO    O3 1671   3.241   7.504   1.999
    4CHTO    C6 1672   3.291   7.366   2.005
    4CHTO   H19 1673   3.233   7.297   1.943
    4CHTO    C8 1674   3.441   7.358   1.959
    4CHTO   H21 1675   3.497   7.436   2.011
    4CHTO    O7 1676   3.443   7.383   1.818
    4CHTO    H2 1677   3.532   7.387   1.787
    4CHTO   C12 1678   3.505   7.218   1.997
    4CHTO   H25 1679   3.453   7.142   1.935
    4CHTO    N3 1680   3.650   7.212   1.961
    4CHTO   H12 1681   3.690   7.114   1.984
    4CHTO   H13 1682   3.705   7.288   2.014
    4CHTO   C15 1683   3.477   7.188   2.148
    4CHTO   H28 1684   3.526   7.260   2.213
    4CHTO   O10 1685   3.516   7.046   2.192
    4CHTO    H4 1686   3.609   7.036   2.184
    4CHTO    O5 1687   3.335   7.189   2.172
    4CHTO   C10 1688   3.276   7.318   2.153
    4CHTO   H23 1689   3.325   7.390   2.219
    4CHTO   C17 1690   3.128   7.312   2.194
    4CHTO   O12 1691   3.113   7.284   2.334
    4CHTO    H6 1692   3.142   7.357   2.384
    5CHTO  H203 1693   8.026   2.125   6.893
    5CHTO   O82 1694   7.955   2.093   6.840
    5CHTO  C123 1695   7.830   2.139   6.894
    5CHTO  H227 1696   7.831   2.249   6.898
    5CHTO   O77 1697   7.733   2.093   6.795
    5CHTO  C118 1698   7.599   2.136   6.822
    5CHTO  H222 1699   7.597   2.246   6.832
    5CHTO  C125 1700   7.509   2.095   6.701
    5CHTO   O84 1701   7.541   2.172   6.585
    5CHTO  H205 1702   7.485   2.146   6.514
    5CHTO  C114 1703   7.549   2.073   6.953
    5CHTO  H218 1704   7.545   1.964   6.941
    5CHTO  C116 1705   7.645   2.105   7.072
    5CHTO  H220 1706   7.632   2.212   7.101
    5CHTO   O79 1707   7.604   2.027   7.187
    5CHTO  H201 1708   7.653   2.052   7.262
    5CHTO  C120 1709   7.796   2.076   7.035
    5CHTO  H224 1710   7.807   1.966   7.030
    5CHTO   N21 1711   7.888   2.124   7.141
    5CHTO  H211 1712   7.915   2.227   7.124
    5CHTO  H212 1713   7.977   2.062   7.144
    5CHTO   O75 1714   7.415   2.125   6.967
    5CHTO  C112 1715   7.316   2.051   7.075
    5CHTO  H216 1716   7.361   2.057   7.175
    5CHTO   O73 1717   7.299   1.915   7.032
    5CHTO  C113 1718   7.215   1.837   7.119
    5CHTO  H217 1719   7.259   1.837   7.221
    5CHTO  C124 1720   7.214   1.691   7.070
    5CHTO   O83 1721   7.343   1.630   7.078
    5CHTO  H204 1722   7.338   1.542   7.047
    5CHTO  C109 1723   7.071   1.897   7.124
    5CHTO  H213 1724   7.031   1.892   7.022
    5CHTO  C110 1725   7.080   2.045   7.172
    5CHTO  H214 1726   7.118   2.047   7.274
    5CHTO   O78 1727   6.947   2.101   7.174
    5CHTO  H200 1728   6.949   2.188   7.210
    5CHTO  C111 1729   7.176   2.123   7.078
    5CHTO  H215 1730   7.136   2.121   6.975
    5CHTO   N19 1731   7.192   2.266   7.114
    5CHTO  H207 1732   7.257   2.316   7.043
    5CHTO  H208 1733   7.233   2.275   7.213
    5CHTO   O74 1734   6.987   1.817   7.212
    5CHTO  C115 1735   6.831   1.814   7.167
    5CHTO  H219 1736   6.808   1.896   7.099
    5CHTO   O76 1737   6.795   1.684   7.089
    5CHTO  C122 1738   6.834   1.565   7.160
    5CHTO  H226 1739   6.939   1.548   7.138
    5CHTO  C126 1740   6.758   1.442   7.096
    5CHTO   O85 1741   6.616   1.455   7.099
    5CHTO  H206 1742   6.589   1.525   7.042
    5CHTO  C121 1743   6.812   1.572   7.317
    5CHTO  H225 1744   6.772   1.474   7.353
    5CHTO   O81 1745   6.939   1.589   7.381
    5CHTO  H202 1746   6.994   1.514   7.366
    5CHTO  C119 1747   6.711   1.685   7.357
    5CHTO  H223 1748   6.619   1.652   7.307
    5CHTO  C117 1749   6.746   1.827   7.299
    5CHTO  H221 1750   6.808   1.889   7.363
    5CHTO   N20 1751   6.622   1.909   7.278
    5CHTO  H209 1752   6.568   1.919   7.371
    5CHTO  H210 1753   6.559   1.863   7.204
    5CHTO   O80 1754   6.665   1.685   7.509
    5CHTO  C103 1755   6.775   1.684   7.628
    5CHTO  H190 1756   6.844   1.600   7.616
    5CHTO  C101 1757   6.859   1.817   7.650
    5CHTO  H188 1758   6.791   1.902   7.648
    5CHTO   O68 1759   6.961   1.832   7.537
    5CHTO  H168 1760   7.003   1.916   7.543
    5CHTO   C99 1761   6.936   1.815   7.792
    5CHTO  H186 1762   7.016   1.738   7.788
    5CHTO   N17 1763   7.003   1.945   7.826
    5CHTO  H174 1764   6.930   2.023   7.837
    5CHTO  H175 1765   7.075   1.970   7.749
    5CHTO   C97 1766   6.840   1.771   7.905
    5CHTO  H184 1767   6.766   1.851   7.924
    5CHTO   O64 1768   6.776   1.647   7.871
    5CHTO  C104 1769   6.689   1.656   7.757
    5CHTO  H191 1770   6.615   1.735   7.769
    5CHTO  C108 1771   6.610   1.525   7.745
    5CHTO   O71 1772   6.524   1.506   7.858
    5CHTO  H171 1773   6.476   1.426   7.847
    5CHTO   O62 1774   6.911   1.738   8.026
    5CHTO   C91 1775   6.851   1.779   8.150
    5CHTO  H178 1776   6.851   1.888   8.151
    5CHTO   C92 1777   6.947   1.734   8.266
    5CHTO  H179 1778   7.048   1.772   8.247
    5CHTO   O66 1779   6.904   1.800   8.387
    5CHTO  H166 1780   6.965   1.783   8.457
    5CHTO   C93 1781   6.944   1.578   8.291
    5CHTO  H180 1782   6.969   1.562   8.397
    5CHTO   N16 1783   7.048   1.504   8.216
    5CHTO  H172 1784   7.034   1.518   8.110
    5CHTO  H173 1785   7.046   1.399   8.241
    5CHTO   C94 1786   6.800   1.519   8.264
    5CHTO  H181 1787   6.790   1.480   8.162
    5CHTO   O61 1788   6.701   1.621   8.279
    5CHTO   C95 1789   6.703   1.723   8.178
    5CHTO  H182 1790   6.661   1.683   8.087
    5CHTO  C106 1791   6.608   1.839   8.223
    5CHTO   O69 1792   6.474   1.792   8.241
    5CHTO  H169 1793   6.419   1.863   8.268
    5CHTO   O63 1794   6.774   1.406   8.365
    5CHTO   C96 1795   6.643   1.322   8.340
    5CHTO  H183 1796   6.643   1.291   8.235
    5CHTO   C98 1797   6.510   1.398   8.369
    5CHTO  H185 1798   6.500   1.487   8.306
    5CHTO   O67 1799   6.400   1.313   8.332
    5CHTO  H167 1800   6.319   1.359   8.340
    5CHTO  C102 1801   6.497   1.434   8.525
    5CHTO  H189 1802   6.389   1.439   8.545
    5CHTO   N18 1803   6.550   1.567   8.565
    5CHTO  H176 1804   6.498   1.645   8.512
    5CHTO  H177 1805   6.656   1.572   8.542
    5CHTO  C105 1806   6.557   1.319   8.611
    5CHTO  H192 1807   6.660   1.345   8.639
    5CHTO   O65 1808   6.562   1.193   8.542
    5CHTO  C100 1809   6.656   1.193   8.433
    5CHTO  H187 1810   6.756   1.193   8.478
    5CHTO  C107 1811   6.644   1.060   8.354
    5CHTO   O70 1812   6.511   1.038   8.306
    5CHTO  H170 1813   6.509   0.956   8.259
    5CHTO   O57 1814   6.469   1.312   8.736
    5CHTO   C85 1815   6.504   1.224   8.843
    5CHTO  H157 1816   6.488   1.120   8.806
    5CHTO   C83 1817   6.403   1.246   8.959
    5CHTO  H155 1818   6.302   1.232   8.920
    5CHTO   O56 1819   6.411   1.384   9.003
    5CHTO  H135 1820   6.384   1.442   8.934
    5CHTO   C81 1821   6.428   1.140   9.071
    5CHTO  H153 1822   6.401   1.043   9.030
    5CHTO   N14 1823   6.332   1.155   9.183
    5CHTO  H141 1824   6.231   1.155   9.146
    5CHTO  H142 1825   6.350   1.248   9.234
    5CHTO   C79 1826   6.583   1.135   9.110
    5CHTO  H151 1827   6.621   1.040   9.071
    5CHTO   O52 1828   6.660   1.242   9.047
    5CHTO   C86 1829   6.651   1.243   8.901
    5CHTO  H158 1830   6.691   1.343   8.874
    5CHTO   C90 1831   6.750   1.140   8.840
    5CHTO   O60 1832   6.885   1.171   8.877
    5CHTO  H138 1833   6.943   1.107   8.840
    5CHTO   O50 1834   6.616   1.133   9.250
    5CHTO   C73 1835   6.750   1.126   9.302
    5CHTO  H145 1836   6.809   1.212   9.267
    5CHTO   C74 1837   6.822   0.995   9.255
    5CHTO  H146 1838   6.821   0.995   9.145
    5CHTO   O54 1839   6.960   1.003   9.293
    5CHTO  H133 1840   7.007   0.928   9.262
    5CHTO   C75 1841   6.746   0.870   9.315
    5CHTO  H147 1842   6.643   0.870   9.275
    5CHTO   N13 1843   6.805   0.740   9.275
    5CHTO  H139 1844   6.803   0.730   9.168
    5CHTO  H140 1845   6.747   0.659   9.318
    5CHTO   C76 1846   6.734   0.886   9.474
    5CHTO  H148 1847   6.835   0.880   9.516
    5CHTO   O49 1848   6.674   1.015   9.509
    5CHTO   C77 1849   6.746   1.128   9.458
    5CHTO  H149 1850   6.848   1.128   9.496
    5CHTO   C88 1851   6.681   1.257   9.511
    5CHTO   O58 1852   6.692   1.262   9.659
    5CHTO  H136 1853   6.649   1.340   9.690
    5CHTO   O51 1854   6.637   0.779   9.534
    5CHTO   C78 1855   6.630   0.781   9.691
    5CHTO  H150 1856   6.653   0.882   9.731
    5CHTO   C80 1857   6.731   0.680   9.750
    5CHTO  H152 1858   6.724   0.586   9.691
    5CHTO   O55 1859   6.862   0.735   9.729
    5CHTO  H134 1860   6.927   0.673   9.756
    5CHTO   C84 1861   6.705   0.648   9.903
    5CHTO  H156 1862   6.732   0.737   9.960
    5CHTO   N15 1863   6.792   0.537   9.952
    5CHTO  H143 1864   6.771   0.446   9.899
    5CHTO  H144 1865   6.776   0.521   0.057
    5CHTO   C87 1866   6.555   0.619   9.925
    5CHTO  H159 1867   6.526   0.529   9.871
    5CHTO   O53 1868   6.478   0.738   9.874
    5CHTO   C82 1869   6.486   0.748   9.731
    5CHTO  H154 1870   6.452   0.656   9.684
    5CHTO   C89 1871   6.389   0.860   9.687
    5CHTO   O59 1872   6.254   0.825   9.717
    5CHTO  H137 1873   6.196   0.893   9.686
    5CHTO   O45 1874   6.515   0.601   0.082
    5CHTO   C67 1875   6.373   0.608   0.106
    5CHTO  H124 1876   6.334   0.699   0.062
    5CHTO   C65 1877   6.298   0.485   0.042
    5CHTO  H122 1878   6.372   0.405   0.034
    5CHTO   O44 1879   6.258   0.526   9.910
    5CHTO  H102 1880   6.228   0.452   9.861
    5CHTO   C63 1881   6.185   0.426   0.135
    5CHTO  H120 1882   6.233   0.367   0.214
    5CHTO   N11 1883   6.095   0.323   0.073
    5CHTO  H108 1884   6.154   0.245   0.030
    5CHTO  H109 1885   6.036   0.369   9.997
    5CHTO   C61 1886   6.109   0.543   0.207
    5CHTO  H118 1887   6.040   0.496   0.279
    5CHTO   O40 1888   6.197   0.629   0.283
    5CHTO   C68 1889   6.341   0.621   0.261
    5CHTO  H125 1890   6.382   0.535   0.317
    5CHTO   C72 1891   6.402   0.749   0.323
    5CHTO   O48 1892   6.545   0.751   0.322
    5CHTO  H105 1893   6.575   0.831   0.359
    5CHTO   O38 1894   6.035   0.625   0.114
    5CHTO   C55 1895   5.929   0.703   0.173
    5CHTO  H112 1896   5.950   0.721   0.279
    5CHTO   C56 1897   5.789   0.632   0.152
    5CHTO  H113 1898   5.777   0.615   0.043
    5CHTO   O42 1899   5.791   0.502   0.214
    5CHTO  H100 1900   5.712   0.455   0.194
    5CHTO   C57 1901   5.673   0.723   0.209
    5CHTO  H114 1902   5.686   0.727   0.317
    5CHTO   N10 1903   5.537   0.667   0.182
    5CHTO  H106 1904   5.464   0.746   0.175
    5CHTO  H107 1905   5.509   0.600   0.262
    5CHTO   C58 1906   5.687   0.867   0.151
    5CHTO  H115 1907   5.664   0.865   0.042
    5CHTO   O37 1908   5.819   0.919   0.172
    5CHTO   C59 1909   5.923   0.844   0.107
    5CHTO  H116 1910   5.902   0.836   0.000
    5CHTO   C70 1911   6.056   0.918   0.124
    5CHTO   O46 1912   6.058   1.043   0.054
    5CHTO  H103 1913   6.143   1.082   0.062
    5CHTO   O39 1914   5.581   0.967   0.229
    5CHTO   C60 1915   5.591   1.107   0.195
    5CHTO  H117 1916   5.690   1.144   0.224
    5CHTO   C62 1917   5.570   1.136   0.044
    5CHTO  H119 1918   5.653   1.084   9.990
    5CHTO   O43 1919   5.444   1.079   0.002
    5CHTO  H101 1920   5.434   1.088   9.909
    5CHTO   C66 1921   5.581   1.293   0.016
    5CHTO  H123 1922   5.677   1.329   0.053
    5CHTO   N12 1923   5.577   1.325   9.871
    5CHTO  H110 1924   5.486   1.289   9.827
    5CHTO  H111 1925   5.664   1.283   9.822
    5CHTO   C69 1926   5.469   1.365   0.096
    5CHTO  H126 1927   5.370   1.328   0.065
    5CHTO   O41 1928   5.491   1.335   0.247
    5CHTO   C64 1929   5.487   1.186   0.280
    5CHTO  H121 1930   5.385   1.146   0.259
    5CHTO   C71 1931   5.515   1.167   0.431
    5CHTO   O47 1932   5.414   1.232   0.510
    5CHTO  H104 1933   5.433   1.220   0.601
    5CHTO   O34 1934   5.471   1.519   0.076
    5CHTO   C49 1935   5.359   1.617   0.109
    5CHTO   H91 1936   5.272   1.588   0.050
    5CHTO   C47 1937   5.407   1.758   0.069
    5CHTO   H89 1938   5.319   1.824   0.088
    5CHTO   O33 1939   5.438   1.763   9.929
    5CHTO   H70 1940   5.361   1.747   9.878
    5CHTO   C45 1941   5.535   1.805   0.158
    5CHTO   H87 1942   5.626   1.776   0.104
    5CHTO    N8 1943   5.533   1.953   0.171
    5CHTO   H75 1944   5.534   1.999   0.073
    5CHTO   H76 1945   5.620   1.985   0.227
    5CHTO   C43 1946   5.539   1.722   0.296
    5CHTO   H85 1947   5.585   1.626   0.269
    5CHTO   O29 1948   5.405   1.704   0.346
    5CHTO   C50 1949   5.322   1.621   0.261
    5CHTO   H92 1950   5.326   1.518   0.300
    5CHTO   C54 1951   5.174   1.662   0.281
    5CHTO   O36 1952   5.130   1.637   0.415
    5CHTO   H72 1953   5.040   1.662   0.424
    5CHTO   O27 1954   5.627   1.776   0.396
    5CHTO   C37 1955   5.640   1.729   0.531
    5CHTO   H79 1956   5.541   1.725   0.579
    5CHTO   C38 1957   5.699   1.584   0.538
    5CHTO   H80 1958   5.789   1.580   0.475
    5CHTO   O31 1959   5.600   1.495   0.482
    5CHTO   H68 1960   5.636   1.408   0.474
    5CHTO   C39 1961   5.733   1.540   0.685
    5CHTO   H81 1962   5.639   1.526   0.738
    5CHTO    N7 1963   5.805   1.408   0.691
    5CHTO   H73 1964   5.824   1.380   0.793
    5CHTO   H74 1965   5.899   1.415   0.637
    5CHTO   C40 1966   5.813   1.653   0.761
    5CHTO   H82 1967   5.915   1.661   0.722
    5CHTO   O26 1968   5.741   1.778   0.748
    5CHTO   C41 1969   5.730   1.826   0.612
    5CHTO   H83 1970   5.830   1.832   0.565
    5CHTO   C52 1971   5.670   1.968   0.615
    5CHTO   O35 1972   5.755   2.063   0.690
    5CHTO   H71 1973   5.716   2.148   0.689
    5CHTO   O28 1974   5.819   1.627   0.903
    5CHTO   C42 1975   5.899   1.707   0.996
    5CHTO   H84 1976   5.876   1.661   1.093
    5CHTO   C44 1977   5.860   1.858   1.010
    5CHTO   H86 1978   5.871   1.906   0.913
    5CHTO   O32 1979   5.722   1.862   1.049
    5CHTO   H69 1980   5.691   1.951   1.052
    5CHTO   C48 1981   5.953   1.937   1.111
    5CHTO   H90 1982   5.934   1.900   1.212
    5CHTO    N9 1983   5.922   2.084   1.115
    5CHTO   H77 1984   5.938   2.128   1.017
    5CHTO   H78 1985   5.983   2.133   1.189
    5CHTO   C51 1986   6.103   1.908   1.075
    5CHTO   H93 1987   6.123   1.946   0.975
    5CHTO   O30 1988   6.122   1.766   1.083
    5CHTO   C46 1989   6.053   1.692   0.975
    5CHTO   H88 1990   6.082   1.734   0.879
    5CHTO   C53 1991   6.102   1.546   0.989
    5CHTO   O72 1992   6.075   1.470   0.871
    5CHTO  H199 1993   6.108   1.383   0.881
    5CHTO   O22 1994   6.197   1.963   1.170
    5CHTO   C31 1995   6.341   1.976   1.137
    5CHTO   H59 1996   6.391   2.005   1.233
    5CHTO   C29 1997   6.409   1.846   1.088
    5CHTO   H57 1998   6.353   1.812   1.000
    5CHTO   O21 1999   6.392   1.745   1.190
    5CHTO   H37 2000   6.443   1.767   1.266
    5CHTO   C27 2001   6.560   1.866   1.047
    5CHTO   H55 2002   6.619   1.887   1.138
    5CHTO    N5 2003   6.618   1.746   0.981
    5CHTO   H43 2004   6.564   1.724   0.890
    5CHTO   H44 2005   6.613   1.661   1.048
    5CHTO   C25 2006   6.573   1.992   0.955
    5CHTO   H53 2007   6.521   1.972   0.860
    5CHTO   O17 2008   6.511   2.107   1.018
    5CHTO   C32 2009   6.370   2.093   1.038
    5CHTO   H60 2010   6.321   2.072   0.943
    5CHTO   C36 2011   6.316   2.228   1.092
    5CHTO   O25 2012   6.337   2.334   0.998
    5CHTO   H40 2013   6.302   2.414   1.032
    5CHTO   O15 2014   6.725   2.028   0.925
    5CHTO   C19 2015   6.767   2.102   0.807
    5CHTO   H47 2016   6.877   2.111   0.819
    5CHTO   C20 2017   6.737   2.029   0.672
    5CHTO   H48 2018   6.630   2.005   0.662
    5CHTO   O19 2019   6.809   1.905   0.675
    5CHTO   H35 2020   6.788   1.854   0.599
    5CHTO   C21 2021   6.778   2.116   0.546
    5CHTO   H49 2022   6.887   2.121   0.542
    5CHTO    N4 2023   6.733   2.055   0.418
    5CHTO   H41 2024   6.766   2.116   0.335
    5CHTO   H42 2025   6.625   2.049   0.417
    5CHTO   C22 2026   6.727   2.261   0.564
    5CHTO   H50 2027   6.618   2.259   0.561
    5CHTO   O14 2028   6.770   2.315   0.690
    5CHTO   C23 2029   6.712   2.248   0.802
    5CHTO   H51 2030   6.603   2.250   0.791
    5CHTO   C34 2031   6.747   2.326   0.929
    5CHTO   O23 2032   6.690   2.458   0.926
    5CHTO   H38 2033   6.715   2.505   1.003
    5CHTO   O16 2034   6.780   2.351   0.465
    5CHTO   C24 2035   6.701   2.489   0.456
    5CHTO   H52 2036   6.657   2.517   0.552
    5CHTO   C26 2037   6.589   2.476   0.351
    5CHTO   H54 2038   6.632   2.424   0.261
    5CHTO   O20 2039   6.487   2.392   0.407
    5CHTO   H36 2040   6.423   2.371   0.342
    5CHTO   C30 2041   6.529   2.613   0.307
    5CHTO   H58 2042   6.466   2.653   0.388
    5CHTO    N6 2043   6.439   2.598   0.189
    5CHTO   H45 2044   6.495   2.560   0.104
    5CHTO   H46 2045   6.396   2.693   0.163
    5CHTO   C33 2046   6.642   2.717   0.284
    5CHTO   H61 2047   6.703   2.689   0.196
    5CHTO   O18 2048   6.729   2.721   0.399
    5CHTO   C28 2049   6.802   2.600   0.420
    5CHTO   H56 2050   6.856   2.571   0.330
    5CHTO   C35 2051   6.903   2.621   0.536
    5CHTO   O24 2052   6.998   2.723   0.507
    5CHTO   H39 2053   7.054   2.736   0.581
    5CHTO    O9 2054   6.589   2.847   0.253
    5CHTO   C13 2055   6.700   2.957   0.229
    5CHTO   H26 2056   6.794   2.906   0.200
    5CHTO   C11 2057   6.718   3.042   0.362
    5CHTO   H24 2058   6.783   2.986   0.430
    5CHTO    O8 2059   6.591   3.061   0.428
    5CHTO    H3 2060   6.603   3.103   0.511
    5CHTO    C9 2061   6.785   3.177   0.325
    5CHTO   H22 2062   6.875   3.150   0.266
    5CHTO    N2 2063   6.839   3.252   0.441
    5CHTO   H10 2064   6.906   3.190   0.498
    5CHTO   H11 2065   6.757   3.286   0.504
    5CHTO    C7 2066   6.686   3.258   0.231
    5CHTO   H20 2067   6.755   3.319   0.168
    5CHTO    O4 2068   6.605   3.173   0.146
    5CHTO   C14 2069   6.662   3.049   0.104
    5CHTO   H27 2070   6.755   3.070   0.046
    5CHTO   C18 2071   6.562   2.983   0.006
    5CHTO   O13 2072   6.617   2.864   9.948
    5CHTO    H7 2073   6.555   2.827   9.888
    5CHTO    O2 2074   6.585   3.357   0.315
    5CHTO    C1 2075   6.483   3.422   0.237
    5CHTO   H14 2076   6.430   3.346   0.176
    5CHTO    C2 2077   6.537   3.536   0.141
    5CHTO   H15 2078   6.603   3.599   0.202
    5CHTO    O6 2079   6.614   3.475   0.035
    5CHTO    H1 2080   6.654   3.541   9.983
    5CHTO    C3 2081   6.416   3.622   0.081
    5CHTO   H16 2082   6.356   3.559   0.014
    5CHTO    N1 2083   6.466   3.738   9.999
    5CHTO    H8 2084   6.525   3.805   0.061
    5CHTO    H9 2085   6.383   3.792   9.957
    5CHTO    C4 2086   6.321   3.666   0.197
    5CHTO   H17 2087   6.376   3.730   0.266
    5CHTO    O1 2088   6.272   3.549   0.266
    5CHTO    C5 2089   6.376   3.477   0.336
    5CHTO   H18 2090   6.426   3.544   0.406
    5CHTO   C16 2091   6.309   3.363   0.416
    5CHTO   O11 2092   6.219   3.413   0.515
    5CHTO    H5 2093   6.179   3.342   0.561
    5CHTO    O3 2094   6.204   3.735   0.148
    5CHTO    C6 2095   6.124   3.805   0.249
    5CHTO   H19 2096   6.131   3.759   0.348
    5CHTO    C8 2097   6.167   3.955   0.262
    5CHTO   H21 2098   6.168   3.999   0.162
    5CHTO    O7 2099   6.299   3.957   0.318
    5CHTO    H2 2100   6.332   4.045   0.320
    5CHTO   C12 2101   6.064   4.035   0.351
    5CHTO   H25 2102   6.074   3.995   0.454
    5CHTO    N3 2103   6.099   4.181   0.358
    5CHTO   H12 2104   6.030   4.233   0.422
    5CHTO   H13 2105   6.098   4.224   0.258
    5CHTO   C15 2106   5.918   4.009   0.301
    5CHTO   H28 2107   5.899   4.055   0.203
    5CHTO   O10 2108   5.812   4.057   0.401
    5CHTO    H4 2109   5.816   4.150   0.409
    5CHTO    O5 2110   5.891   3.868   0.295
    5CHTO   C10 2111   5.975   3.795   0.205
    5CHTO   H23 2112   5.964   3.836   0.105
    5CHTO   C17 2113   5.928   3.649   0.202
    5CHTO   O12 2114   5.798   3.638   0.143
    5CHTO    H6 2115   5.772   3.548   0.140
    6CHTO  H203 2116   3.539   2.299   9.865
    6CHTO   O82 2117   3.504   2.225   9.910
    6CHTO  C123 2118   3.440   2.267   0.032
    6CHTO  H227 2119   3.362   2.341   0.008
    6CHTO   O77 2120   3.380   2.144   0.082
    6CHTO  C118 2121   3.301   2.162   0.201
    6CHTO  H222 2122   3.222   2.237   0.181
    6CHTO  C125 2123   3.232   2.024   0.235
    6CHTO   O84 2124   3.144   1.983   0.131
    6CHTO  H205 2125   3.106   1.900   0.153
    6CHTO  C114 2126   3.390   2.210   0.317
    6CHTO  H218 2127   3.464   2.132   0.339
    6CHTO  C116 2128   3.468   2.340   0.278
    6CHTO  H220 2129   3.396   2.425   0.273
    6CHTO   O79 2130   3.561   2.371   0.383
    6CHTO  H201 2131   3.602   2.454   0.367
    6CHTO  C120 2132   3.542   2.323   0.139
    6CHTO  H224 2133   3.624   2.250   0.155
    6CHTO   N21 2134   3.605   2.451   0.096
    6CHTO  H211 2135   3.536   2.510   0.039
    6CHTO  H212 2136   3.693   2.430   0.037
    6CHTO   O75 2137   3.300   2.225   0.427
    6CHTO  C112 2138   3.367   2.230   0.577
    6CHTO  H216 2139   3.439   2.313   0.582
    6CHTO   O73 2140   3.431   2.103   0.600
    6CHTO  C113 2141   3.496   2.095   0.729
    6CHTO  H217 2142   3.568   2.180   0.738
    6CHTO  C124 2143   3.576   1.966   0.739
    6CHTO   O83 2144   3.688   1.964   0.651
    6CHTO  H204 2145   3.735   1.883   0.661
    6CHTO  C109 2146   3.390   2.105   0.841
    6CHTO  H213 2147   3.324   2.017   0.830
    6CHTO  C110 2148   3.310   2.237   0.828
    6CHTO  H214 2149   3.376   2.320   0.853
    6CHTO   O78 2150   3.204   2.237   0.926
    6CHTO  H200 2151   3.159   2.319   0.926
    6CHTO  C111 2152   3.254   2.254   0.684
    6CHTO  H215 2153   3.176   2.179   0.667
    6CHTO   N19 2154   3.190   2.387   0.661
    6CHTO  H207 2155   3.150   2.392   0.561
    6CHTO  H208 2156   3.262   2.466   0.676
    6CHTO   O74 2157   3.458   2.097   0.970
    6CHTO  C115 2158   3.377   2.025   1.084
    6CHTO  H219 2159   3.276   1.999   1.052
    6CHTO   O76 2160   3.443   1.889   1.127
    6CHTO  C122 2161   3.582   1.904   1.158
    6CHTO  H226 2162   3.635   1.910   1.062
    6CHTO  C126 2163   3.634   1.773   1.226
    6CHTO   O85 2164   3.563   1.738   1.345
    6CHTO  H206 2165   3.475   1.715   1.324
    6CHTO  C121 2166   3.616   2.033   1.245
    6CHTO  H225 2167   3.684   2.003   1.328
    6CHTO   O81 2168   3.688   2.127   1.164
    6CHTO  H202 2169   3.770   2.090   1.138
    6CHTO  C119 2170   3.486   2.094   1.309
    6CHTO  H223 2171   3.449   2.014   1.373
    6CHTO  C117 2172   3.371   2.126   1.205
    6CHTO  H221 2173   3.379   2.224   1.158
    6CHTO   N20 2174   3.237   2.128   1.271
    6CHTO  H209 2175   3.236   2.200   1.351
    6CHTO  H210 2176   3.214   2.029   1.310
    6CHTO   O80 2177   3.509   2.209   1.415
    6CHTO  C103 2178   3.614   2.323   1.388
    6CHTO  H190 2179   3.710   2.281   1.359
    6CHTO  C101 2180   3.577   2.438   1.286
    6CHTO  H188 2181   3.480   2.481   1.315
    6CHTO   O68 2182   3.565   2.381   1.144
    6CHTO  H168 2183   3.536   2.448   1.084
    6CHTO   C99 2184   3.687   2.555   1.292
    6CHTO  H186 2185   3.784   2.513   1.258
    6CHTO   N17 2186   3.657   2.672   1.203
    6CHTO  H174 2187   3.567   2.722   1.236
    6CHTO  H175 2188   3.649   2.639   1.100
    6CHTO   C97 2189   3.710   2.600   1.439
    6CHTO  H184 2190   3.622   2.656   1.475
    6CHTO   O64 2191   3.739   2.486   1.521
    6CHTO  C104 2192   3.635   2.389   1.530
    6CHTO  H191 2193   3.541   2.433   1.563
    6CHTO  C108 2194   3.673   2.285   1.636
    6CHTO   O71 2195   3.683   2.345   1.766
    6CHTO  H171 2196   3.709   2.281   1.828
    6CHTO   O62 2197   3.830   2.679   1.453
    6CHTO   C91 2198   3.836   2.774   1.561
    6CHTO  H178 2199   3.754   2.845   1.545
    6CHTO   C92 2200   3.969   2.856   1.544
    6CHTO  H179 2201   3.977   2.893   1.440
    6CHTO   O66 2202   3.959   2.973   1.626
    6CHTO  H166 2203   4.031   3.031   1.610
    6CHTO   C93 2204   4.097   2.774   1.588
    6CHTO  H180 2205   4.176   2.848   1.611
    6CHTO   N16 2206   4.153   2.689   1.481
    6CHTO  H172 2207   4.080   2.615   1.450
    6CHTO  H173 2208   4.243   2.641   1.514
    6CHTO   C94 2209   4.068   2.690   1.719
    6CHTO  H181 2210   4.051   2.584   1.696
    6CHTO   O61 2211   3.950   2.737   1.785
    6CHTO   C95 2212   3.830   2.714   1.710
    6CHTO  H182 2213   3.811   2.607   1.706
    6CHTO  C106 2214   3.711   2.776   1.791
    6CHTO   O69 2215   3.691   2.706   1.914
    6CHTO  H169 2216   3.618   2.744   1.960
    6CHTO   O63 2217   4.185   2.704   1.815
    6CHTO   C96 2218   4.194   2.586   1.919
    6CHTO  H183 2219   4.190   2.493   1.862
    6CHTO   C98 2220   4.080   2.583   2.027
    6CHTO  H185 2221   3.981   2.581   1.978
    6CHTO   O67 2222   4.090   2.460   2.099
    6CHTO  H167 2223   4.018   2.451   2.159
    6CHTO  C102 2224   4.092   2.705   2.131
    6CHTO  H189 2225   4.052   2.668   2.226
    6CHTO   N18 2226   4.011   2.825   2.098
    6CHTO  H176 2227   3.906   2.799   2.096
    6CHTO  H177 2228   4.040   2.864   2.002
    6CHTO  C105 2229   4.242   2.742   2.152
    6CHTO  H192 2230   4.270   2.822   2.082
    6CHTO   O65 2231   4.330   2.631   2.128
    6CHTO  C100 2232   4.338   2.596   1.988
    6CHTO  H187 2233   4.395   2.676   1.938
    6CHTO  C107 2234   4.420   2.466   1.974
    6CHTO   O70 2235   4.356   2.356   2.039
    6CHTO  H170 2236   4.409   2.280   2.031
    6CHTO   O57 2237   4.252   2.792   2.297
    6CHTO   C85 2238   4.372   2.856   2.345
    6CHTO  H157 2239   4.440   2.775   2.378
    6CHTO   C83 2240   4.332   2.936   2.473
    6CHTO  H155 2241   4.285   2.868   2.543
    6CHTO   O56 2242   4.232   3.033   2.435
    6CHTO  H135 2243   4.153   2.990   2.408
    6CHTO   C81 2244   4.460   2.996   2.540
    6CHTO  H153 2245   4.514   2.913   2.586
    6CHTO   N14 2246   4.426   3.081   2.657
    6CHTO  H141 2247   4.363   3.027   2.725
    6CHTO  H142 2248   4.375   3.169   2.625
    6CHTO   C79 2249   4.557   3.061   2.432
    6CHTO  H151 2250   4.638   2.990   2.416
    6CHTO   O52 2251   4.490   3.081   2.303
    6CHTO   C86 2252   4.443   2.956   2.243
    6CHTO  H158 2253   4.371   2.992   2.166
    6CHTO   C90 2254   4.558   2.886   2.166
    6CHTO   O60 2255   4.604   2.968   2.057
    6CHTO  H138 2256   4.673   2.923   2.012
    6CHTO   O50 2257   4.622   3.185   2.467
    6CHTO   C73 2258   4.711   3.261   2.383
    6CHTO  H145 2259   4.656   3.303   2.298
    6CHTO   C74 2260   4.827   3.171   2.328
    6CHTO  H146 2261   4.781   3.087   2.274
    6CHTO   O54 2262   4.898   3.247   2.229
    6CHTO  H133 2263   4.966   3.194   2.191
    6CHTO   C75 2264   4.917   3.121   2.448
    6CHTO  H147 2265   4.856   3.057   2.513
    6CHTO   N13 2266   5.032   3.037   2.406
    6CHTO  H139 2267   4.996   2.950   2.354
    6CHTO  H140 2268   5.088   3.005   2.493
    6CHTO   C76 2269   4.964   3.246   2.536
    6CHTO  H148 2270   5.031   3.306   2.475
    6CHTO   O49 2271   4.849   3.328   2.577
    6CHTO   C77 2272   4.772   3.378   2.466
    6CHTO  H149 2273   4.836   3.438   2.401
    6CHTO   C88 2274   4.663   3.473   2.518
    6CHTO   O58 2275   4.724   3.593   2.581
    6CHTO  H136 2276   4.656   3.652   2.608
    6CHTO   O51 2277   5.031   3.196   2.671
    6CHTO   C78 2278   5.080   3.312   2.766
    6CHTO  H150 2279   5.011   3.399   2.762
    6CHTO   C80 2280   5.222   3.358   2.728
    6CHTO  H152 2281   5.287   3.268   2.717
    6CHTO   O55 2282   5.210   3.422   2.599
    6CHTO  H134 2283   5.295   3.444   2.566
    6CHTO   C84 2284   5.284   3.456   2.835
    6CHTO  H156 2285   5.227   3.549   2.832
    6CHTO   N15 2286   5.427   3.492   2.804
    6CHTO  H143 2287   5.488   3.404   2.805
    6CHTO  H144 2288   5.464   3.561   2.877
    6CHTO   C87 2289   5.270   3.396   2.977
    6CHTO  H159 2290   5.330   3.305   2.985
    6CHTO   O53 2291   5.120   3.363   2.999
    6CHTO   C82 2292   5.076   3.259   2.911
    6CHTO  H154 2293   5.139   3.170   2.921
    6CHTO   C89 2294   4.932   3.217   2.947
    6CHTO   O59 2295   4.925   3.167   3.081
    6CHTO  H137 2296   4.836   3.145   3.102
    6CHTO   O45 2297   5.321   3.501   3.089
    6CHTO   C67 2298   5.259   3.495   3.218
    6CHTO  H124 2299   5.151   3.500   3.207
    6CHTO   C65 2300   5.296   3.363   3.295
    6CHTO  H122 2301   5.390   3.328   3.251
    6CHTO   O44 2302   5.193   3.268   3.265
    6CHTO  H102 2303   5.218   3.183   3.296
    6CHTO   C63 2304   5.330   3.389   3.447
    6CHTO  H120 2305   5.428   3.434   3.453
    6CHTO   N11 2306   5.349   3.266   3.532
    6CHTO  H108 2307   5.420   3.201   3.486
    6CHTO  H109 2308   5.255   3.215   3.543
    6CHTO   C61 2309   5.229   3.495   3.505
    6CHTO  H118 2310   5.261   3.516   3.608
    6CHTO   O40 2311   5.233   3.621   3.433
    6CHTO   C68 2312   5.298   3.624   3.302
    6CHTO  H125 2313   5.408   3.628   3.317
    6CHTO   C72 2314   5.256   3.755   3.232
    6CHTO   O48 2315   5.334   3.784   3.115
    6CHTO  H105 2316   5.306   3.866   3.078
    6CHTO   O38 2317   5.093   3.447   3.503
    6CHTO   C55 2318   5.000   3.519   3.587
    6CHTO  H112 2319   5.036   3.622   3.603
    6CHTO   C56 2320   4.981   3.442   3.724
    6CHTO  H113 2321   4.960   3.336   3.699
    6CHTO   O42 2322   5.105   3.444   3.796
    6CHTO  H100 2323   5.100   3.389   3.871
    6CHTO   C57 2324   4.864   3.504   3.811
    6CHTO  H114 2325   4.899   3.601   3.845
    6CHTO   N10 2326   4.833   3.422   3.931
    6CHTO  H106 2327   4.729   3.433   3.960
    6CHTO  H107 2328   4.896   3.453   4.014
    6CHTO   C58 2329   4.738   3.525   3.722
    6CHTO  H115 2330   4.697   3.426   3.692
    6CHTO   O37 2331   4.771   3.601   3.604
    6CHTO   C59 2332   4.862   3.534   3.516
    6CHTO  H116 2333   4.823   3.436   3.488
    6CHTO   C70 2334   4.878   3.618   3.388
    6CHTO   O46 2335   4.753   3.638   3.320
    6CHTO  H103 2336   4.767   3.690   3.244
    6CHTO   O39 2337   4.626   3.608   3.806
    6CHTO   C60 2338   4.511   3.654   3.732
    6CHTO  H117 2339   4.545   3.714   3.647
    6CHTO   C62 2340   4.422   3.538   3.679
    6CHTO  H119 2341   4.484   3.481   3.606
    6CHTO   O43 2342   4.387   3.452   3.789
    6CHTO  H101 2343   4.339   3.378   3.758
    6CHTO   C66 2344   4.294   3.599   3.602
    6CHTO  H123 2345   4.329   3.661   3.520
    6CHTO   N12 2346   4.207   3.496   3.541
    6CHTO  H110 2347   4.171   3.428   3.617
    6CHTO  H111 2348   4.262   3.443   3.464
    6CHTO   C69 2349   4.216   3.692   3.699
    6CHTO  H126 2350   4.180   3.634   3.787
    6CHTO   O41 2351   4.314   3.804   3.747
    6CHTO   C64 2352   4.429   3.749   3.823
    6CHTO  H121 2353   4.392   3.692   3.911
    6CHTO   C71 2354   4.515   3.866   3.877
    6CHTO   O47 2355   4.440   3.947   3.968
    6CHTO  H104 2356   4.495   4.017   4.000
    6CHTO   O34 2357   4.090   3.762   3.631
    6CHTO   C49 2358   3.978   3.823   3.722
    6CHTO   H91 2359   3.933   3.740   3.777
    6CHTO   C47 2360   3.872   3.890   3.630
    6CHTO   H89 2361   3.792   3.923   3.700
    6CHTO   O33 2362   3.816   3.794   3.539
    6CHTO   H70 2363   3.769   3.728   3.587
    6CHTO   C45 2364   3.936   4.015   3.550
    6CHTO   H87 2365   3.976   3.979   3.454
    6CHTO    N8 2366   3.828   4.113   3.521
    6CHTO   H75 2367   3.749   4.066   3.465
    6CHTO   H76 2368   3.868   4.196   3.464
    6CHTO   C43 2369   4.064   4.073   3.630
    6CHTO   H85 2370   4.146   4.009   3.600
    6CHTO   O29 2371   4.039   4.067   3.771
    6CHTO   C50 2372   4.029   3.932   3.821
    6CHTO   H92 2373   4.128   3.902   3.857
    6CHTO   C54 2374   3.945   3.934   3.951
    6CHTO   O36 2375   4.011   4.008   4.054
    6CHTO   H72 2376   3.959   4.008   4.132
    6CHTO   O27 2377   4.106   4.205   3.590
    6CHTO   C37 2378   4.205   4.283   3.659
    6CHTO   H79 2379   4.188   4.277   3.768
    6CHTO   C38 2380   4.349   4.230   3.633
    6CHTO   H80 2381   4.363   4.219   3.524
    6CHTO   O31 2382   4.358   4.100   3.694
    6CHTO   H68 2383   4.441   4.061   3.674
    6CHTO   C39 2384   4.459   4.327   3.691
    6CHTO   H81 2385   4.449   4.327   3.799
    6CHTO    N7 2386   4.598   4.283   3.658
    6CHTO   H73 2387   4.670   4.351   3.702
    6CHTO   H74 2388   4.612   4.280   3.551
    6CHTO   C40 2389   4.430   4.474   3.642
    6CHTO   H82 2390   4.444   4.482   3.534
    6CHTO   O26 2391   4.296   4.510   3.681
    6CHTO   C41 2392   4.192   4.432   3.616
    6CHTO   H83 2393   4.201   4.440   3.507
    6CHTO   C52 2394   4.055   4.489   3.659
    6CHTO   O35 2395   4.044   4.631   3.635
    6CHTO   H71 2396   3.960   4.662   3.664
    6CHTO   O28 2397   4.514   4.573   3.706
    6CHTO   C42 2398   4.524   4.711   3.657
    6CHTO   H84 2399   4.579   4.761   3.737
    6CHTO   C44 2400   4.390   4.791   3.640
    6CHTO   H86 2401   4.330   4.742   3.562
    6CHTO   O32 2402   4.318   4.783   3.764
    6CHTO   H69 2403   4.234   4.824   3.756
    6CHTO   C48 2404   4.417   4.940   3.595
    6CHTO   H90 2405   4.471   4.988   3.677
    6CHTO    N9 2406   4.291   5.019   3.577
    6CHTO   H77 2407   4.231   4.975   3.499
    6CHTO   H78 2408   4.316   5.122   3.552
    6CHTO   C51 2409   4.508   4.938   3.467
    6CHTO   H93 2410   4.453   4.890   3.386
    6CHTO   O30 2411   4.628   4.867   3.500
    6CHTO   C46 2412   4.609   4.725   3.527
    6CHTO   H88 2413   4.557   4.679   3.443
    6CHTO   C53 2414   4.751   4.667   3.540
    6CHTO   O72 2415   4.753   4.527   3.511
    6CHTO  H199 2416   4.840   4.494   3.519
    6CHTO   O22 2417   4.553   5.069   3.428
    6CHTO   C31 2418   4.603   5.095   3.291
    6CHTO   H59 2419   4.644   5.198   3.293
    6CHTO   C29 2420   4.718   5.002   3.245
    6CHTO   H57 2421   4.682   4.899   3.255
    6CHTO   O21 2422   4.827   5.016   3.337
    6CHTO   H37 2423   4.865   5.102   3.330
    6CHTO   C27 2424   4.762   5.026   3.095
    6CHTO   H55 2425   4.813   5.124   3.089
    6CHTO    N5 2426   4.856   4.922   3.046
    6CHTO   H43 2427   4.808   4.825   3.049
    6CHTO   H44 2428   4.946   4.922   3.106
    6CHTO   C25 2429   4.635   5.034   3.004
    6CHTO   H53 2430   4.585   4.936   3.004
    6CHTO   O17 2431   4.542   5.132   3.056
    6CHTO   C32 2432   4.488   5.097   3.184
    6CHTO   H60 2433   4.443   4.998   3.180
    6CHTO   C36 2434   4.379   5.200   3.219
    6CHTO   O25 2435   4.271   5.197   3.124
    6CHTO   H40 2436   4.206   5.259   3.149
    6CHTO   O15 2437   4.670   5.075   2.855
    6CHTO   C19 2438   4.584   5.038   2.743
    6CHTO   H47 2439   4.634   5.083   2.656
    6CHTO   C20 2440   4.573   4.884   2.721
    6CHTO   H48 2441   4.535   4.833   2.811
    6CHTO   O19 2442   4.706   4.835   2.696
    6CHTO   H35 2443   4.706   4.742   2.691
    6CHTO   C21 2444   4.475   4.849   2.602
    6CHTO   H49 2445   4.521   4.881   2.508
    6CHTO    N4 2446   4.451   4.702   2.589
    6CHTO   H41 2447   4.387   4.683   2.504
    6CHTO   H42 2448   4.404   4.664   2.678
    6CHTO   C22 2449   4.343   4.928   2.618
    6CHTO   H50 2450   4.292   4.892   2.707
    6CHTO   O14 2451   4.370   5.069   2.631
    6CHTO   C23 2452   4.443   5.102   2.750
    6CHTO   H51 2453   4.385   5.066   2.836
    6CHTO   C34 2454   4.449   5.255   2.759
    6CHTO   O23 2455   4.319   5.310   2.783
    6CHTO   H38 2456   4.326   5.404   2.789
    6CHTO   O16 2457   4.259   4.917   2.502
    6CHTO   C24 2458   4.111   4.956   2.533
    6CHTO   H52 2459   4.103   5.019   2.621
    6CHTO   C26 2460   4.028   4.828   2.553
    6CHTO   H54 2461   4.043   4.761   2.464
    6CHTO   O20 2462   4.079   4.759   2.669
    6CHTO   H36 2463   4.036   4.676   2.678
    6CHTO   C30 2464   3.876   4.861   2.567
    6CHTO   H58 2465   3.858   4.914   2.661
    6CHTO    N6 2466   3.794   4.736   2.572
    6CHTO   H45 2467   3.806   4.680   2.481
    6CHTO   H46 2468   3.690   4.761   2.585
    6CHTO   C33 2469   3.831   4.957   2.453
    6CHTO   H61 2470   3.834   4.903   2.356
    6CHTO   O18 2471   3.919   5.070   2.445
    6CHTO   C28 2472   4.055   5.038   2.414
    6CHTO   H56 2473   4.061   4.978   2.323
    6CHTO   C35 2474   4.135   5.169   2.394
    6CHTO   O24 2475   4.086   5.246   2.285
    6CHTO   H39 2476   4.137   5.324   2.276
    6CHTO    O9 2477   3.694   4.998   2.469
    6CHTO   C13 2478   3.637   5.076   2.340
    6CHTO   H26 2479   3.703   5.052   2.253
    6CHTO   C11 2480   3.634   5.232   2.370
    6CHTO   H24 2481   3.738   5.269   2.365
    6CHTO    O8 2482   3.584   5.257   2.502
    6CHTO    H3 2483   3.589   5.348   2.522
    6CHTO    C9 2484   3.549   5.298   2.258
    6CHTO   H22 2485   3.591   5.262   2.163
    6CHTO    N2 2486   3.565   5.445   2.251
    6CHTO   H10 2487   3.670   5.471   2.241
    6CHTO   H11 2488   3.524   5.491   2.340
    6CHTO    C7 2489   3.399   5.248   2.269
    6CHTO   H20 2490   3.367   5.244   2.163
    6CHTO    O4 2491   3.389   5.117   2.328
    6CHTO   C14 2492   3.493   5.023   2.298
    6CHTO   H27 2493   3.493   5.005   2.188
    6CHTO   C18 2494   3.454   4.889   2.364
    6CHTO   O13 2495   3.549   4.787   2.333
    6CHTO    H7 2496   3.524   4.707   2.373
    6CHTO    O2 2497   3.297   5.351   2.352
    6CHTO    C1 2498   3.166   5.299   2.381
    6CHTO   H14 2499   3.176   5.196   2.422
    6CHTO    C2 2500   3.067   5.295   2.257
    6CHTO   H15 2501   3.065   5.397   2.215
    6CHTO    O6 2502   3.119   5.204   2.158
    6CHTO    H1 2503   3.064   5.205   2.081
    6CHTO    C3 2504   2.920   5.251   2.305
    6CHTO   H16 2505   2.924   5.148   2.344
    6CHTO    N1 2506   2.821   5.253   2.193
    6CHTO    H8 2507   2.811   5.353   2.153
    6CHTO    H9 2508   2.724   5.219   2.228
    6CHTO    C4 2509   2.877   5.341   2.426
    6CHTO   H17 2510   2.869   5.444   2.392
    6CHTO    O1 2511   2.975   5.333   2.532
    6CHTO    C5 2512   3.104   5.384   2.495
    6CHTO   H18 2513   3.094   5.486   2.459
    6CHTO   C16 2514   3.194   5.385   2.621
    6CHTO   O11 2515   3.143   5.476   2.719
    6CHTO    H5 2516   3.200   5.476   2.794
    6CHTO    O3 2517   2.752   5.297   2.483
    6CHTO    C6 2518   2.687   5.395   2.571
    6CHTO   H19 2519   2.758   5.463   2.617
    6CHTO    C8 2520   2.581   5.480   2.493
    6CHTO   H21 2521   2.511   5.411   2.444
    6CHTO    O7 2522   2.651   5.557   2.394
    6CHTO    H2 2523   2.590   5.605   2.341
    6CHTO   C12 2524   2.501   5.573   2.594
    6CHTO   H25 2525   2.574   5.648   2.631
    6CHTO    N3 2526   2.392   5.649   2.524
    6CHTO   H12 2527   2.342   5.714   2.594
    6CHTO   H13 2528   2.322   5.580   2.480
    6CHTO   C15 2529   2.449   5.489   2.716
    6CHTO   H28 2530   2.366   5.423   2.689
    6CHTO   O10 2531   2.410   5.574   2.829
    6CHTO    H4 2532   2.335   5.625   2.806
    6CHTO    O5 2533   2.555   5.413   2.776
    6CHTO   C10 2534   2.617   5.319   2.687
    6CHTO   H23 2535   2.541   5.252   2.647
    6CHTO   C17 2536   2.716   5.235   2.768
    6CHTO   O12 2537   2.647   5.161   2.870
    6CHTO    H6 2538   2.708   5.104   2.914
    7CHTO  H203 2539   7.275   0.837   6.017
    7CHTO   O82 2540   7.322   0.756   6.015
    7CHTO  C123 2541   7.437   0.763   6.100
    7CHTO  H227 2542   7.405   0.784   6.203
    7CHTO   O77 2543   7.491   0.628   6.091
    7CHTO  C118 2544   7.606   0.605   6.173
    7CHTO  H222 2545   7.583   0.629   6.278
    7CHTO  C125 2546   7.644   0.453   6.164
    7CHTO   O84 2547   7.539   0.371   6.214
    7CHTO  H205 2548   7.562   0.280   6.205
    7CHTO  C114 2549   7.722   0.694   6.124
    7CHTO  H218 2550   7.745   0.667   6.021
    7CHTO  C116 2551   7.681   0.844   6.126
    7CHTO  H220 2552   7.671   0.878   6.232
    7CHTO   O79 2553   7.789   0.921   6.069
    7CHTO  H201 2554   7.771   1.013   6.076
    7CHTO  C120 2555   7.545   0.866   6.049
    7CHTO  H224 2556   7.566   0.848   5.941
    7CHTO   N21 2557   7.496   1.007   6.061
    7CHTO  H211 2558   7.434   1.018   6.149
    7CHTO  H212 2559   7.441   1.035   5.973
    7CHTO   O75 2560   7.831   0.662   6.211
    7CHTO  C112 2561   7.977   0.654   6.139
    7CHTO  H216 2562   7.996   0.748   6.086
    7CHTO   O73 2563   7.975   0.541   6.049
    7CHTO  C113 2564   8.099   0.521   5.978
    7CHTO  H217 2565   8.124   0.614   5.923
    7CHTO  C124 2566   8.081   0.409   5.875
    7CHTO   O83 2567   7.992   0.445   5.769
    7CHTO  H204 2568   7.985   0.374   5.708
    7CHTO  C109 2569   8.212   0.487   6.078
    7CHTO  H213 2570   8.184   0.392   6.127
    7CHTO  C110 2571   8.225   0.601   6.184
    7CHTO  H214 2572   8.264   0.690   6.134
    7CHTO   O78 2573   8.321   0.560   6.283
    7CHTO  H200 2574   8.337   0.630   6.343
    7CHTO  C111 2575   8.087   0.632   6.250
    7CHTO  H215 2576   8.057   0.545   6.310
    7CHTO   N19 2577   8.092   0.748   6.343
    7CHTO  H207 2578   7.996   0.762   6.389
    7CHTO  H208 2579   8.120   0.838   6.289
    7CHTO   O74 2580   8.338   0.468   6.004
    7CHTO  C115 2581   8.435   0.358   6.067
    7CHTO  H219 2582   8.388   0.304   6.150
    7CHTO   O76 2583   8.473   0.246   5.963
    7CHTO  C122 2584   8.535   0.296   5.843
    7CHTO  H226 2585   8.455   0.321   5.773
    7CHTO  C126 2586   8.615   0.179   5.776
    7CHTO   O85 2587   8.717   0.123   5.860
    7CHTO  H206 2588   8.677   0.081   5.934
    7CHTO  C121 2589   8.628   0.424   5.864
    7CHTO  H225 2590   8.716   0.415   5.796
    7CHTO   O81 2591   8.558   0.543   5.826
    7CHTO  H202 2592   8.536   0.540   5.735
    7CHTO  C119 2593   8.680   0.428   6.012
    7CHTO  H223 2594   8.731   0.332   6.023
    7CHTO  C117 2595   8.564   0.434   6.118
    7CHTO  H221 2596   8.529   0.534   6.142
    7CHTO   N20 2597   8.611   0.380   6.250
    7CHTO  H209 2598   8.696   0.436   6.285
    7CHTO  H210 2599   8.637   0.275   6.240
    7CHTO   O80 2600   8.799   0.529   6.038
    7CHTO  C103 2601   8.795   0.676   5.981
    7CHTO  H190 2602   8.765   0.676   5.876
    7CHTO  C101 2603   8.707   0.781   6.060
    7CHTO  H188 2604   8.729   0.771   6.166
    7CHTO   O68 2605   8.557   0.750   6.038
    7CHTO  H168 2606   8.505   0.805   6.092
    7CHTO   C99 2607   8.740   0.931   6.014
    7CHTO  H186 2608   8.705   0.945   5.910
    7CHTO   N17 2609   8.671   1.037   6.096
    7CHTO  H174 2610   8.706   1.033   6.199
    7CHTO  H175 2611   8.564   1.024   6.091
    7CHTO   C97 2612   8.893   0.955   6.011
    7CHTO  H184 2613   8.931   0.957   6.115
    7CHTO   O64 2614   8.957   0.853   5.932
    7CHTO  C104 2615   8.945   0.721   5.986
    7CHTO  H191 2616   8.981   0.715   6.089
    7CHTO  C108 2617   9.035   0.626   5.905
    7CHTO   O71 2618   9.173   0.662   5.917
    7CHTO  H171 2619   9.225   0.605   5.864
    7CHTO   O62 2620   8.927   1.076   5.942
    7CHTO   C91 2621   9.042   1.148   5.991
    7CHTO  H178 2622   9.025   1.167   6.097
    7CHTO   C92 2623   9.045   1.287   5.920
    7CHTO  H179 2624   8.948   1.338   5.933
    7CHTO   O66 2625   9.140   1.369   5.989
    7CHTO  H166 2626   9.138   1.457   5.956
    7CHTO   C93 2627   9.087   1.278   5.767
    7CHTO  H180 2628   9.133   1.374   5.740
    7CHTO   N16 2629   8.972   1.262   5.676
    7CHTO  H172 2630   8.918   1.171   5.698
    7CHTO  H173 2631   9.005   1.262   5.573
    7CHTO   C94 2632   9.195   1.163   5.746
    7CHTO  H181 2633   9.149   1.069   5.714
    7CHTO   O61 2634   9.264   1.136   5.869
    7CHTO   C95 2635   9.183   1.074   5.969
    7CHTO  H182 2636   9.166   0.970   5.940
    7CHTO  C106 2637   9.265   1.068   6.103
    7CHTO   O69 2638   9.383   0.990   6.087
    7CHTO  H169 2639   9.431   0.989   6.167
    7CHTO   O63 2640   9.298   1.209   5.642
    7CHTO   C96 2641   9.393   1.093   5.589
    7CHTO  H183 2642   9.331   1.007   5.564
    7CHTO   C98 2643   9.504   1.046   5.690
    7CHTO  H185 2644   9.457   1.008   5.783
    7CHTO   O67 2645   9.571   0.932   5.633
    7CHTO  H167 2646   9.631   0.896   5.696
    7CHTO  C102 2647   9.612   1.161   5.720
    7CHTO  H189 2648   9.707   1.109   5.739
    7CHTO   N18 2649   9.586   1.242   5.841
    7CHTO  H176 2650   9.586   1.179   5.928
    7CHTO  H177 2651   9.490   1.292   5.833
    7CHTO  C105 2652   9.629   1.250   5.593
    7CHTO  H192 2653   9.560   1.335   5.598
    7CHTO   O65 2654   9.601   1.177   5.471
    7CHTO  C100 2655   9.461   1.149   5.456
    7CHTO  H187 2656   9.412   1.244   5.429
    7CHTO  C107 2657   9.440   1.055   5.334
    7CHTO   O70 2658   9.511   0.932   5.346
    7CHTO  H170 2659   9.497   0.879   5.270
    7CHTO   O57 2660   9.777   1.301   5.597
    7CHTO   C85 2661   9.826   1.384   5.490
    7CHTO  H157 2662   9.838   1.317   5.402
    7CHTO   C83 2663   9.969   1.432   5.527
    7CHTO  H155 2664   0.031   1.344   5.547
    7CHTO   O56 2665   9.964   1.507   5.651
    7CHTO  H135 2666   9.937   1.452   5.721
    7CHTO   C81 2667   0.030   1.510   5.407
    7CHTO  H153 2668   0.041   1.440   5.324
    7CHTO   N14 2669   0.171   1.551   5.433
    7CHTO  H141 2670   0.229   1.466   5.462
    7CHTO  H142 2671   0.174   1.624   5.511
    7CHTO   C79 2672   9.931   1.626   5.358
    7CHTO  H151 2673   9.898   1.598   5.257
    7CHTO   O52 2674   9.810   1.636   5.441
    7CHTO   C86 2675   9.736   1.511   5.456
    7CHTO  H158 2676   9.666   1.533   5.539
    7CHTO   C90 2677   9.647   1.485   5.331
    7CHTO   O60 2678   9.551   1.590   5.314
    7CHTO  H138 2679   9.500   1.573   5.237
    7CHTO   O50 2680   9.985   1.758   5.344
    7CHTO   C73 2681   9.927   1.878   5.289
    7CHTO  H145 2682   9.847   1.915   5.355
    7CHTO   C74 2683   9.868   1.852   5.147
    7CHTO  H146 2684   9.791   1.774   5.157
    7CHTO   O54 2685   9.798   1.971   5.105
    7CHTO  H133 2686   9.758   1.957   5.021
    7CHTO   C75 2687   9.984   1.808   5.050
    7CHTO  H147 2688   0.028   1.714   5.089
    7CHTO   N13 2689   9.939   1.776   4.913
    7CHTO  H139 2690   9.867   1.695   4.916
    7CHTO  H140 2691   0.023   1.745   4.852
    7CHTO   C76 2692   0.099   1.919   5.052
    7CHTO  H148 2693   0.058   2.011   5.009
    7CHTO   O49 2694   0.143   1.945   5.190
    7CHTO   C77 2695   0.038   1.987   5.278
    7CHTO  H149 2696   9.993   2.080   5.242
    7CHTO   C88 2697   0.097   2.020   5.416
    7CHTO   O58 2698   0.191   2.128   5.407
    7CHTO  H136 2699   0.227   2.145   5.491
    7CHTO   O51 2700   0.229   1.869   4.976
    7CHTO   C78 2701   0.334   1.984   4.960
    7CHTO  H150 2702   0.317   2.064   5.035
    7CHTO   C80 2703   0.328   2.045   4.819
    7CHTO  H152 2704   0.341   1.963   4.744
    7CHTO   O55 2705   0.196   2.100   4.802
    7CHTO  H134 2706   0.186   2.133   4.715
    7CHTO   C84 2707   0.442   2.153   4.799
    7CHTO  H156 2708   0.427   2.233   4.872
    7CHTO   N15 2709   0.440   2.217   4.663
    7CHTO  H143 2710   0.456   2.143   4.588
    7CHTO  H144 2711   0.517   2.291   4.657
    7CHTO   C87 2712   0.577   2.085   4.830
    7CHTO  H159 2713   0.593   2.003   4.760
    7CHTO   O53 2714   0.571   2.032   4.974
    7CHTO   C82 2715   0.475   1.927   4.989
    7CHTO  H154 2716   0.497   1.844   4.922
    7CHTO   C89 2717   0.483   1.872   5.133
    7CHTO   O59 2718   0.613   1.816   5.158
    7CHTO  H137 2719   0.616   1.782   5.246
    7CHTO   O45 2720   0.704   2.186   4.821
    7CHTO   C67 2721   0.828   2.127   4.866
    7CHTO  H124 2722   0.813   2.090   4.968
    7CHTO   C65 2723   0.871   2.006   4.775
    7CHTO  H122 2724   0.826   2.023   4.677
    7CHTO   O44 2725   0.812   1.888   4.834
    7CHTO  H102 2726   0.823   1.814   4.778
    7CHTO   C63 2727   1.026   2.000   4.748
    7CHTO  H120 2728   1.052   2.077   4.675
    7CHTO   N11 2729   1.078   1.876   4.682
    7CHTO  H108 2730   1.023   1.858   4.591
    7CHTO  H109 2731   1.067   1.792   4.747
    7CHTO   C61 2732   1.100   2.039   4.881
    7CHTO  H118 2733   1.208   2.036   4.861
    7CHTO   O40 2734   1.069   2.175   4.922
    7CHTO   C68 2735   0.943   2.235   4.877
    7CHTO  H125 2736   0.960   2.284   4.778
    7CHTO   C72 2737   0.909   2.347   4.978
    7CHTO   O48 2738   0.796   2.427   4.942
    7CHTO  H105 2739   0.782   2.493   5.007
    7CHTO   O38 2740   1.066   1.949   4.989
    7CHTO   C55 2741   1.154   1.953   5.104
    7CHTO  H112 2742   1.208   2.049   5.107
    7CHTO   C56 2743   1.251   1.830   5.100
    7CHTO  H113 2744   1.189   1.739   5.094
    7CHTO   O42 2745   1.329   1.835   4.979
    7CHTO  H100 2746   1.383   1.759   4.972
    7CHTO   C57 2747   1.343   1.828   5.229
    7CHTO  H114 2748   1.410   1.913   5.220
    7CHTO   N10 2749   1.427   1.706   5.236
    7CHTO  H106 2750   1.449   1.680   5.339
    7CHTO  H107 2751   1.520   1.721   5.183
    7CHTO   C58 2752   1.257   1.846   5.357
    7CHTO  H115 2753   1.198   1.752   5.375
    7CHTO   O37 2754   1.166   1.957   5.346
    7CHTO   C59 2755   1.073   1.947   5.236
    7CHTO  H116 2756   1.018   1.853   5.243
    7CHTO   C70 2757   0.972   2.062   5.244
    7CHTO   O46 2758   0.891   2.057   5.361
    7CHTO  H103 2759   0.831   2.129   5.361
    7CHTO   O39 2760   1.356   1.877   5.483
    7CHTO   C60 2761   1.295   1.897   5.611
    7CHTO  H117 2762   1.224   1.980   5.605
    7CHTO   C62 2763   1.218   1.770   5.662
    7CHTO  H119 2764   1.135   1.753   5.591
    7CHTO   O43 2765   1.308   1.658   5.658
    7CHTO  H101 2766   1.262   1.579   5.683
    7CHTO   C66 2767   1.158   1.798   5.809
    7CHTO  H123 2768   1.090   1.884   5.803
    7CHTO   N12 2769   1.076   1.685   5.858
    7CHTO  H110 2770   1.136   1.595   5.863
    7CHTO  H111 2771   0.990   1.670   5.794
    7CHTO   C69 2772   1.273   1.836   5.905
    7CHTO  H126 2773   1.346   1.751   5.912
    7CHTO   O41 2774   1.345   1.962   5.849
    7CHTO   C64 2775   1.405   1.938   5.713
    7CHTO  H121 2776   1.480   1.857   5.719
    7CHTO   C71 2777   1.477   2.066   5.667
    7CHTO   O47 2778   1.589   2.095   5.751
    7CHTO  H104 2779   1.632   2.173   5.722
    7CHTO   O34 2780   1.222   1.868   6.050
    7CHTO   C49 2781   1.315   1.856   6.174
    7CHTO   H91 2782   1.345   1.752   6.181
    7CHTO   C47 2783   1.233   1.896   6.299
    7CHTO   H89 2784   1.300   1.874   6.386
    7CHTO   O33 2785   1.115   1.814   6.311
    7CHTO   H70 2786   1.139   1.725   6.327
    7CHTO   C45 2787   1.192   2.053   6.294
    7CHTO   H87 2788   1.093   2.061   6.248
    7CHTO    N8 2789   1.183   2.104   6.433
    7CHTO   H75 2790   1.112   2.046   6.490
    7CHTO   H76 2791   1.152   2.208   6.432
    7CHTO   C43 2792   1.291   2.133   6.195
    7CHTO   H85 2793   1.253   2.114   6.095
    7CHTO   O29 2794   1.426   2.085   6.212
    7CHTO   C50 2795   1.441   1.948   6.168
    7CHTO   H92 2796   1.477   1.950   6.064
    7CHTO   C54 2797   1.560   1.885   6.245
    7CHTO   O36 2798   1.684   1.946   6.208
    7CHTO   H72 2799   1.754   1.907   6.256
    7CHTO   O27 2800   1.283   2.276   6.208
    7CHTO   C37 2801   1.363   2.381   6.150
    7CHTO   H79 2802   1.469   2.366   6.176
    7CHTO   C38 2803   1.354   2.383   5.994
    7CHTO   H80 2804   1.247   2.387   5.965
    7CHTO   O31 2805   1.411   2.260   5.946
    7CHTO   H68 2806   1.398   2.253   5.853
    7CHTO   C39 2807   1.429   2.509   5.935
    7CHTO   H81 2808   1.535   2.496   5.957
    7CHTO    N7 2809   1.418   2.520   5.785
    7CHTO   H73 2810   1.473   2.606   5.750
    7CHTO   H74 2811   1.314   2.529   5.757
    7CHTO   C40 2812   1.382   2.641   6.007
    7CHTO   H82 2813   1.278   2.664   5.981
    7CHTO   O26 2814   1.399   2.623   6.149
    7CHTO   C41 2815   1.316   2.518   6.206
    7CHTO   H83 2816   1.210   2.535   6.181
    7CHTO   C52 2817   1.331   2.523   6.359
    7CHTO   O35 2818   1.300   2.653   6.415
    7CHTO   H71 2819   1.312   2.651   6.508
    7CHTO   O28 2820   1.464   2.754   5.972
    7CHTO   C42 2821   1.446   2.891   6.020
    7CHTO   H84 2822   1.536   2.941   5.984
    7CHTO   C44 2823   1.446   2.911   6.176
    7CHTO   H86 2824   1.363   2.855   6.218
    7CHTO   O32 2825   1.569   2.856   6.225
    7CHTO   H69 2826   1.571   2.859   6.319
    7CHTO   C48 2827   1.427   3.063   6.217
    7CHTO   H90 2828   1.517   3.118   6.189
    7CHTO    N9 2829   1.415   3.078   6.366
    7CHTO   H77 2830   1.328   3.025   6.403
    7CHTO   H78 2831   1.408   3.183   6.392
    7CHTO   C51 2832   1.304   3.121   6.140
    7CHTO   H93 2833   1.215   3.068   6.172
    7CHTO   O30 2834   1.329   3.105   5.999
    7CHTO   C46 2835   1.325   2.964   5.956
    7CHTO   H88 2836   1.232   2.918   5.989
    7CHTO   C53 2837   1.330   2.968   5.801
    7CHTO   O72 2838   1.297   2.840   5.744
    7CHTO  H199 2839   1.299   2.846   5.651
    7CHTO   O22 2840   1.287   3.263   6.159
    7CHTO   C31 2841   1.159   3.330   6.125
    7CHTO   H59 2842   1.176   3.438   6.143
    7CHTO   C29 2843   1.118   3.315   5.976
    7CHTO   H57 2844   1.113   3.207   5.954
    7CHTO   O21 2845   1.224   3.369   5.894
    7CHTO   H37 2846   1.229   3.462   5.904
    7CHTO   C27 2847   0.978   3.380   5.943
    7CHTO   H55 2848   0.987   3.489   5.951
    7CHTO    N5 2849   0.931   3.346   5.807
    7CHTO   H43 2850   0.920   3.239   5.797
    7CHTO   H44 2851   1.001   3.383   5.733
    7CHTO   C25 2852   0.874   3.334   6.051
    7CHTO   H53 2853   0.858   3.225   6.042
    7CHTO   O17 2854   0.924   3.362   6.184
    7CHTO   C32 2855   1.042   3.288   6.218
    7CHTO   H60 2856   1.023   3.182   6.207
    7CHTO   C36 2857   1.073   3.318   6.367
    7CHTO   O25 2858   0.968   3.272   6.452
    7CHTO   H40 2859   0.990   3.290   6.541
    7CHTO   O15 2860   0.736   3.408   6.035
    7CHTO   C19 2861   0.612   3.359   6.093
    7CHTO   H47 2862   0.538   3.435   6.063
    7CHTO   C20 2863   0.568   3.220   6.039
    7CHTO   H48 2864   0.644   3.143   6.058
    7CHTO   O19 2865   0.555   3.235   5.897
    7CHTO   H35 2866   0.536   3.152   5.857
    7CHTO   C21 2867   0.432   3.173   6.105
    7CHTO   H49 2868   0.353   3.242   6.075
    7CHTO    N4 2869   0.390   3.037   6.061
    7CHTO   H41 2870   0.296   3.011   6.106
    7CHTO   H42 2871   0.465   2.964   6.089
    7CHTO   C22 2872   0.448   3.183   6.259
    7CHTO   H50 2873   0.527   3.114   6.289
    7CHTO   O14 2874   0.483   3.317   6.296
    7CHTO   C23 2875   0.612   3.358   6.249
    7CHTO   H51 2876   0.686   3.287   6.289
    7CHTO   C34 2877   0.643   3.496   6.307
    7CHTO   O23 2878   0.656   3.490   6.450
    7CHTO   H38 2879   0.675   3.575   6.483
    7CHTO   O16 2880   0.326   3.154   6.330
    7CHTO   C24 2881   0.352   3.124   6.482
    7CHTO   H52 2882   0.446   3.166   6.516
    7CHTO   C26 2883   0.353   2.971   6.504
    7CHTO   H54 2884   0.260   2.928   6.459
    7CHTO   O20 2885   0.466   2.917   6.434
    7CHTO   H36 2886   0.465   2.824   6.438
    7CHTO   C30 2887   0.355   2.937   6.656
    7CHTO   H58 2888   0.449   2.972   6.701
    7CHTO    N6 2889   0.350   2.790   6.681
    7CHTO   H45 2890   0.258   2.749   6.642
    7CHTO   H46 2891   0.356   2.770   6.787
    7CHTO   C33 2892   0.240   3.015   6.727
    7CHTO   H61 2893   0.143   2.982   6.685
    7CHTO   O18 2894   0.257   3.155   6.701
    7CHTO   C28 2895   0.240   3.192   6.563
    7CHTO   H56 2896   0.143   3.159   6.526
    7CHTO   C35 2897   0.249   3.346   6.551
    7CHTO   O24 2898   0.147   3.413   6.627
    7CHTO   H39 2899   0.155   3.505   6.614
    7CHTO    O9 2900   0.231   2.988   6.868
    7CHTO   C13 2901   0.102   3.058   6.934
    7CHTO   H26 2902   0.020   3.059   6.859
    7CHTO   C11 2903   0.139   3.206   6.981
    7CHTO   H24 2904   0.141   3.270   6.892
    7CHTO    O8 2905   0.271   3.207   7.040
    7CHTO    H3 2906   0.297   3.295   7.059
    7CHTO    C9 2907   0.029   3.255   7.078
    7CHTO   H22 2908   9.934   3.240   7.025
    7CHTO    N2 2909   0.034   3.402   7.103
    7CHTO   H10 2910   0.031   3.455   7.010
    7CHTO   H11 2911   0.123   3.427   7.159
    7CHTO    C7 2912   0.029   3.163   7.208
    7CHTO   H20 2913   9.921   3.158   7.235
    7CHTO    O4 2914   0.079   3.030   7.182
    7CHTO   C14 2915   0.044   2.972   7.055
    7CHTO   H27 2916   9.934   2.970   7.049
    7CHTO   C18 2917   0.092   2.825   7.057
    7CHTO   O13 2918   0.054   2.757   6.937
    7CHTO    H7 2919   0.081   2.667   6.942
    7CHTO    O2 2920   0.114   3.226   7.333
    7CHTO    C1 2921   0.132   3.138   7.445
    7CHTO   H14 2922   0.163   3.037   7.410
    7CHTO    C2 2923   0.004   3.122   7.537
    7CHTO   H15 2924   9.969   3.225   7.558
    7CHTO    O6 2925   9.902   3.052   7.464
    7CHTO    H1 2926   9.822   3.050   7.513
    7CHTO    C3 2927   0.039   3.046   7.674
    7CHTO   H16 2928   0.057   2.940   7.651
    7CHTO    N1 2929   9.924   3.051   7.770
    7CHTO    H8 2930   9.902   3.153   7.797
    7CHTO    H9 2931   9.949   2.994   7.859
    7CHTO    C4 2932   0.172   3.100   7.736
    7CHTO   H17 2933   0.155   3.202   7.772
    7CHTO    O1 2934   0.278   3.101   7.638
    7CHTO    C5 2935   0.252   3.191   7.529
    7CHTO   H18 2936   0.225   3.289   7.568
    7CHTO   C16 2937   0.380   3.205   7.444
    7CHTO   O11 2938   0.485   3.267   7.520
    7CHTO    H5 2939   0.562   3.274   7.466
    7CHTO    O3 2940   0.216   3.016   7.845
    7CHTO    C6 2941   0.333   3.062   7.922
    7CHTO   H19 2942   0.407   3.112   7.859
    7CHTO    C8 2943   0.292   3.159   8.038
    7CHTO   H21 2944   0.216   3.110   8.098
    7CHTO    O7 2945   0.239   3.279   7.978
    7CHTO    H2 2946   0.203   3.335   8.045
    7CHTO   C12 2947   0.418   3.191   8.128
    7CHTO   H25 2948   0.490   3.247   8.064
    7CHTO    N3 2949   0.383   3.281   8.243
    7CHTO   H12 2950   0.471   3.302   8.301
    7CHTO   H13 2951   0.307   3.235   8.304
    7CHTO   C15 2952   0.486   3.057   8.174
    7CHTO   H28 2953   0.422   3.001   8.243
    7CHTO   O10 2954   0.621   3.080   8.237
    7CHTO    H4 2955   0.611   3.126   8.318
    7CHTO    O5 2956   0.518   2.975   8.060
    7CHTO   C10 2957   0.403   2.937   7.983
    7CHTO   H23 2958   0.333   2.884   8.048
    7CHTO   C17 2959   0.448   2.838   7.874
    7CHTO   O12 2960   0.500   2.717   7.931
    7CHTO    H6 2961   0.526   2.659   7.862
    8CHTO  H203 2962   0.327   1.260   4.818
    8CHTO   O82 2963   0.261   1.205   4.858
    8CHTO  C123 2964   0.223   1.102   4.766
    8CHTO  H227 2965   0.312   1.042   4.740
    8CHTO   O77 2966   0.130   1.021   4.846
    8CHTO  C118 2967   0.084   0.902   4.779
    8CHTO  H222 2968   0.170   0.840   4.750
    8CHTO  C125 2969   9.995   0.822   4.881
    8CHTO   O84 2970   0.072   0.777   4.992
    8CHTO  H205 2971   0.017   0.728   5.051
    8CHTO  C114 2972   0.004   0.940   4.653
    8CHTO  H218 2973   9.915   0.996   4.684
    8CHTO  C116 2974   0.086   1.033   4.558
    8CHTO  H220 2975   0.167   0.973   4.511
    8CHTO   O79 2976  10.000   1.078   4.452
    8CHTO  H201 2977   0.049   1.128   4.389
    8CHTO  C120 2978   0.148   1.155   4.638
    8CHTO  H224 2979   0.063   1.220   4.668
    8CHTO   N21 2980   0.237   1.237   4.551
    8CHTO  H211 2981   0.338   1.199   4.554
    8CHTO  H212 2982   0.235   1.340   4.583
    8CHTO   O75 2983   9.966   0.814   4.595
    8CHTO  C112 2984   9.837   0.818   4.492
    8CHTO  H216 2985   9.866   0.871   4.400
    8CHTO   O73 2986   9.728   0.883   4.559
    8CHTO  C113 2987   9.609   0.894   4.480
    8CHTO  H217 2988   9.634   0.943   4.382
    8CHTO  C124 2989   9.508   0.985   4.551
    8CHTO   O83 2990   9.556   1.120   4.563
    8CHTO  H204 2991   9.491   1.173   4.605
    8CHTO  C109 2992   9.551   0.753   4.454
    8CHTO  H213 2993   9.530   0.709   4.553
    8CHTO  C110 2994   9.659   0.668   4.379
    8CHTO  H214 2995   9.671   0.709   4.278
    8CHTO   O78 2996   9.610   0.533   4.364
    8CHTO  H200 2997   9.670   0.483   4.311
    8CHTO  C111 2998   9.795   0.670   4.454
    8CHTO  H215 2999   9.784   0.614   4.549
    8CHTO   N19 3000   9.905   0.603   4.379
    8CHTO  H207 3001   9.996   0.605   4.437
    8CHTO  H208 3002   9.922   0.654   4.285
    8CHTO   O74 3003   9.427   0.763   4.378
    8CHTO  C115 3004   9.323   0.642   4.403
    8CHTO  H219 3005   9.364   0.569   4.474
    8CHTO   O76 3006   9.188   0.694   4.470
    8CHTO  C122 3007   9.123   0.797   4.395
    8CHTO  H226 3008   9.165   0.892   4.427
    8CHTO  C126 3009   8.971   0.802   4.435
    8CHTO   O85 3010   8.901   0.679   4.411
    8CHTO  H206 3011   8.935   0.612   4.468
    8CHTO  C121 3012   9.136   0.782   4.237
    8CHTO  H225 3013   9.040   0.813   4.190
    8CHTO   O81 3014   9.235   0.874   4.190
    8CHTO  H202 3015   9.208   0.963   4.206
    8CHTO  C119 3016   9.165   0.633   4.198
    8CHTO  H223 3017   9.080   0.579   4.242
    8CHTO  C117 3018   9.296   0.575   4.263
    8CHTO  H221 3019   9.387   0.594   4.207
    8CHTO   N20 3020   9.289   0.425   4.274
    8CHTO  H209 3021   9.274   0.382   4.176
    8CHTO  H210 3022   9.209   0.396   4.340
    8CHTO   O80 3023   9.146   0.600   4.046
    8CHTO  C103 3024   9.196   0.698   3.938
    8CHTO  H190 3025   9.168   0.801   3.963
    8CHTO  C101 3026   9.350   0.695   3.906
    8CHTO  H188 3027   9.381   0.591   3.891
    8CHTO   O68 3028   9.427   0.751   4.025
    8CHTO  H168 3029   9.519   0.741   4.011
    8CHTO   C99 3030   9.384   0.779   3.774
    8CHTO  H186 3031   9.368   0.887   3.796
    8CHTO   N17 3032   9.526   0.765   3.729
    8CHTO  H174 3033   9.547   0.663   3.700
    8CHTO  H175 3034   9.593   0.798   3.807
    8CHTO   C97 3035   9.285   0.744   3.660
    8CHTO  H184 3036   9.309   0.644   3.619
    8CHTO   O64 3037   9.149   0.753   3.705
    8CHTO  C104 3038   9.115   0.660   3.809
    8CHTO  H191 3039   9.139   0.557   3.781
    8CHTO  C108 3040   8.964   0.664   3.833
    8CHTO   O71 3041   8.892   0.620   3.717
    8CHTO  H171 3042   8.800   0.622   3.734
    8CHTO   O62 3043   9.289   0.844   3.556
    8CHTO   C91 3044   9.271   0.801   3.421
    8CHTO  H178 3045   9.359   0.742   3.394
    8CHTO   C92 3046   9.275   0.930   3.332
    8CHTO  H179 3047   9.364   0.990   3.358
    8CHTO   O66 3048   9.295   0.889   3.196
    8CHTO  H166 3049   9.310   0.964   3.141
    8CHTO   C93 3050   9.142   1.014   3.340
    8CHTO  H180 3051   9.136   1.075   3.249
    8CHTO   N16 3052   9.139   1.112   3.452
    8CHTO  H172 3053   9.146   1.061   3.547
    8CHTO  H173 3054   9.048   1.171   3.447
    8CHTO   C94 3055   9.016   0.919   3.346
    8CHTO  H181 3056   8.977   0.907   3.447
    8CHTO   O61 3057   9.049   0.786   3.300
    8CHTO   C95 3058   9.137   0.718   3.390
    8CHTO  H182 3059   9.084   0.698   3.482
    8CHTO  C106 3060   9.169   0.578   3.329
    8CHTO   O69 3061   9.050   0.500   3.319
    8CHTO  H169 3062   9.070   0.416   3.283
    8CHTO   O63 3063   8.913   0.972   3.258
    8CHTO   C96 3064   8.771   0.924   3.293
    8CHTO  H183 3065   8.761   0.924   3.401
    8CHTO   C98 3066   8.735   0.780   3.242
    8CHTO  H185 3067   8.805   0.706   3.283
    8CHTO   O67 3068   8.606   0.745   3.293
    8CHTO  H167 3069   8.585   0.656   3.272
    8CHTO  C102 3070   8.730   0.774   3.081
    8CHTO  H189 3071   8.657   0.696   3.057
    8CHTO   N18 3072   8.856   0.732   3.016
    8CHTO  H176 3073   8.882   0.632   3.047
    8CHTO  H177 3074   8.936   0.800   3.042
    8CHTO  C105 3075   8.679   0.910   3.026
    8CHTO  H192 3076   8.764   0.975   3.004
    8CHTO   O65 3077   8.596   0.981   3.120
    8CHTO  C100 3078   8.672   1.032   3.232
    8CHTO  H187 3079   8.731   1.117   3.193
    8CHTO  C107 3080   8.580   1.091   3.341
    8CHTO   O70 3081   8.492   0.993   3.397
    8CHTO  H170 3082   8.437   1.034   3.462
    8CHTO   O57 3083   8.602   0.875   2.892
    8CHTO   C85 3084   8.568   0.978   2.798
    8CHTO  H157 3085   8.473   1.023   2.833
    8CHTO   C83 3086   8.537   0.911   2.661
    8CHTO  H155 3087   8.458   0.837   2.677
    8CHTO   O56 3088   8.653   0.837   2.617
    8CHTO  H135 3089   8.672   0.767   2.676
    8CHTO   C81 3090   8.485   1.018   2.560
    8CHTO  H153 3091   8.389   1.054   2.597
    8CHTO   N14 3092   8.449   0.957   2.429
    8CHTO  H141 3093   8.382   0.875   2.443
    8CHTO  H142 3094   8.537   0.922   2.379
    8CHTO   C79 3095   8.584   1.143   2.554
    8CHTO  H151 3096   8.529   1.228   2.597
    8CHTO   O52 3097   8.705   1.125   2.634
    8CHTO   C86 3098   8.681   1.089   2.774
    8CHTO  H158 3099   8.780   1.051   2.805
    8CHTO   C90 3100   8.654   1.215   2.859
    8CHTO   O60 3101   8.771   1.297   2.864
    8CHTO  H138 3102   8.753   1.374   2.914
    8CHTO   O50 3103   8.626   1.187   2.424
    8CHTO   C73 3104   8.701   1.302   2.379
    8CHTO  H145 3105   8.807   1.291   2.406
    8CHTO   C74 3106   8.645   1.433   2.442
    8CHTO  H146 3107   8.653   1.422   2.552
    8CHTO   O54 3108   8.733   1.541   2.406
    8CHTO  H133 3109   8.705   1.621   2.447
    8CHTO   C75 3110   8.496   1.454   2.396
    8CHTO  H147 3111   8.436   1.369   2.432
    8CHTO   N13 3112   8.431   1.575   2.453
    8CHTO  H139 3113   8.430   1.568   2.561
    8CHTO  H140 3114   8.329   1.581   2.419
    8CHTO   C76 3115   8.491   1.451   2.236
    8CHTO  H148 3116   8.545   1.538   2.199
    8CHTO   O49 3117   8.552   1.329   2.184
    8CHTO   C77 3118   8.689   1.311   2.224
    8CHTO  H149 3119   8.750   1.394   2.188
    8CHTO   C88 3120   8.745   1.185   2.155
    8CHTO   O58 3121   8.746   1.202   2.007
    8CHTO  H136 3122   8.782   1.126   1.967
    8CHTO   O51 3123   8.341   1.447   2.185
    8CHTO   C78 3124   8.329   1.445   2.028
    8CHTO  H150 3125   8.416   1.394   1.982
    8CHTO   C80 3126   8.320   1.588   1.972
    8CHTO  H152 3127   8.241   1.644   2.028
    8CHTO   O55 3128   8.447   1.652   1.997
    8CHTO  H134 3129   8.443   1.742   1.971
    8CHTO   C84 3130   8.284   1.588   1.818
    8CHTO  H156 3131   8.366   1.541   1.764
    8CHTO   N15 3132   8.268   1.726   1.761
    8CHTO  H143 3133   8.188   1.778   1.811
    8CHTO  H144 3134   8.246   1.721   1.657
    8CHTO   C87 3135   8.157   1.502   1.797
    8CHTO  H159 3136   8.073   1.546   1.850
    8CHTO   O53 3137   8.187   1.361   1.851
    8CHTO   C82 3138   8.205   1.362   1.993
    8CHTO  H154 3139   8.116   1.402   2.042
    8CHTO   C89 3140   8.220   1.215   2.041
    8CHTO   O59 3141   8.100   1.141   2.017
    8CHTO  H137 3142   8.111   1.053   2.048
    8CHTO   O45 3143   8.118   1.490   1.644
    8CHTO   C67 3144   8.028   1.383   1.611
    8CHTO  H124 3145   8.069   1.289   1.647
    8CHTO   C65 3146   7.886   1.404   1.677
    8CHTO  H122 3147   7.875   1.511   1.693
    8CHTO   O44 3148   7.890   1.337   1.804
    8CHTO  H102 3149   7.813   1.356   1.853
    8CHTO   C63 3150   7.768   1.366   1.580
    8CHTO  H120 3151   7.756   1.446   1.507
    8CHTO   N11 3152   7.631   1.361   1.641
    8CHTO  H108 3153   7.611   1.452   1.693
    8CHTO  H109 3154   7.624   1.279   1.709
    8CHTO   C61 3155   7.807   1.238   1.498
    8CHTO  H118 3156   7.726   1.221   1.426
    8CHTO   O40 3157   7.929   1.256   1.420
    8CHTO   C68 3158   8.018   1.367   1.455
    8CHTO  H125 3159   7.980   1.460   1.407
    8CHTO   C72 3160   8.156   1.336   1.391
    8CHTO   O48 3161   8.247   1.447   1.395
    8CHTO  H105 3162   8.327   1.423   1.353
    8CHTO   O38 3163   7.824   1.121   1.581
    8CHTO   C55 3164   7.827   0.998   1.508
    8CHTO  H112 3165   7.856   1.016   1.403
    8CHTO   C56 3166   7.686   0.926   1.517
    8CHTO  H113 3167   7.662   0.914   1.624
    8CHTO   O42 3168   7.586   1.013   1.461
    8CHTO  H100 3169   7.501   0.976   1.473
    8CHTO   C57 3170   7.690   0.787   1.443
    8CHTO  H114 3171   7.698   0.809   1.337
    8CHTO   N10 3172   7.565   0.708   1.462
    8CHTO  H106 3173   7.585   0.602   1.457
    8CHTO  H107 3174   7.493   0.734   1.386
    8CHTO   C58 3175   7.815   0.706   1.486
    8CHTO  H115 3176   7.800   0.668   1.590
    8CHTO   O37 3177   7.936   0.784   1.481
    8CHTO   C59 3178   7.935   0.901   1.564
    8CHTO  H116 3179   7.913   0.875   1.667
    8CHTO   C70 3180   8.073   0.968   1.559
    8CHTO   O46 3181   8.177   0.883   1.608
    8CHTO  H103 3182   8.259   0.928   1.603
    8CHTO   O39 3183   7.834   0.580   1.382
    8CHTO   C60 3184   7.950   0.498   1.402
    8CHTO  H117 3185   8.040   0.559   1.392
    8CHTO   C62 3186   7.952   0.431   1.543
    8CHTO  H119 3187   7.956   0.514   1.617
    8CHTO   O43 3188   7.829   0.358   1.563
    8CHTO  H101 3189   7.827   0.323   1.650
    8CHTO   C66 3190   8.084   0.341   1.558
    8CHTO  H123 3191   8.171   0.403   1.537
    8CHTO   N12 3192   8.101   0.290   1.696
    8CHTO  H110 3193   8.015   0.231   1.725
    8CHTO  H111 3194   8.116   0.373   1.764
    8CHTO   C69 3195   8.080   0.228   1.451
    8CHTO  H126 3196   7.988   0.166   1.465
    8CHTO   O41 3197   8.076   0.296   1.310
    8CHTO   C64 3198   7.957   0.390   1.290
    8CHTO  H121 3199   7.862   0.332   1.291
    8CHTO   C71 3200   7.968   0.459   1.151
    8CHTO   O47 3201   7.960   0.362   1.046
    8CHTO  H104 3202   7.969   0.405   0.963
    8CHTO   O34 3203   8.204   0.135   1.459
    8CHTO   C49 3204   8.208   9.991   1.408
    8CHTO   H91 3205   8.131   9.935   1.461
    8CHTO   C47 3206   8.348   9.933   1.439
    8CHTO   H89 3207   8.341   9.825   1.409
    8CHTO   O33 3208   8.375   9.938   1.580
    8CHTO   H70 3209   8.316   9.882   1.627
    8CHTO   C45 3210   8.463   0.011   1.356
    8CHTO   H87 3211   8.502   0.092   1.418
    8CHTO    N8 3212   8.573   9.916   1.328
    8CHTO   H75 3213   8.611   9.874   1.421
    8CHTO   H76 3214   8.653   9.967   1.276
    8CHTO   C43 3215   8.400   0.084   1.226
    8CHTO   H85 3216   8.357   0.176   1.266
    8CHTO   O29 3217   8.299  10.000   1.168
    8CHTO   C50 3218   8.184   9.978   1.253
    8CHTO   H92 3219   8.106   0.050   1.225
    8CHTO   C54 3220   8.121   9.841   1.219
    8CHTO   O36 3221   8.071   9.839   1.085
    8CHTO   H72 3222   8.036   9.754   1.066
    8CHTO   O27 3223   8.495   0.128   1.128
    8CHTO   C37 3224   8.468   0.192   1.002
    8CHTO   H79 3225   8.406   0.127   0.939
    8CHTO   C38 3226   8.389   0.326   1.022
    8CHTO   H80 3227   8.440   0.385   1.101
    8CHTO   O31 3228   8.257   0.291   1.067
    8CHTO   H68 3229   8.210   0.368   1.091
    8CHTO   C39 3230   8.381   0.411   0.890
    8CHTO   H81 3231   8.315   0.357   0.821
    8CHTO    N7 3232   8.318   0.547   0.912
    8CHTO   H73 3233   8.311   0.600   0.818
    8CHTO   H74 3234   8.378   0.603   0.982
    8CHTO   C40 3235   8.521   0.421   0.818
    8CHTO   H82 3236   8.588   0.487   0.875
    8CHTO   O26 3237   8.576   0.289   0.802
    8CHTO   C41 3238   8.602   0.220   0.928
    8CHTO   H83 3239   8.667   0.282   0.992
    8CHTO   C52 3240   8.677   0.089   0.896
    8CHTO   O35 3241   8.809   0.115   0.834
    8CHTO   H71 3242   8.853   0.034   0.818
    8CHTO   O28 3243   8.507   0.474   0.685
    8CHTO   C42 3244   8.618   0.512   0.597
    8CHTO   H84 3245   8.567   0.539   0.504
    8CHTO   C44 3246   8.719   0.398   0.559
    8CHTO   H86 3247   8.771   0.367   0.649
    8CHTO   O32 3248   8.642   0.288   0.508
    8CHTO   H69 3249   8.698   0.214   0.492
    8CHTO   C48 3250   8.826   0.449   0.454
    8CHTO   H90 3251   8.775   0.467   0.359
    8CHTO    N9 3252   8.930   0.344   0.424
    8CHTO   H77 3253   8.984   0.318   0.514
    8CHTO   H78 3254   8.997   0.379   0.347
    8CHTO   C51 3255   8.891   0.583   0.503
    8CHTO   H93 3256   8.950   0.562   0.592
    8CHTO   O30 3257   8.787   0.678   0.530
    8CHTO   C46 3258   8.698   0.637   0.644
    8CHTO   H88 3259   8.759   0.612   0.731
    8CHTO   C53 3260   8.608   0.759   0.674
    8CHTO   O72 3261   8.551   0.752   0.805
    8CHTO  H199 3262   8.499   0.828   0.821
    8CHTO   O22 3263   8.973   0.644   0.401
    8CHTO   C31 3264   9.076   0.744   0.432
    8CHTO   H59 3265   9.127   0.766   0.336
    8CHTO   C29 3266   9.021   0.879   0.485
    8CHTO   H57 3267   8.961   0.857   0.574
    8CHTO   O21 3268   8.930   0.932   0.386
    8CHTO   H37 3269   8.977   0.958   0.309
    8CHTO   C27 3270   9.135   0.981   0.524
    8CHTO   H55 3271   9.189   1.011   0.432
    8CHTO    N5 3272   9.083   1.104   0.589
    8CHTO   H43 3273   9.032   1.079   0.681
    8CHTO   H44 3274   9.017   1.156   0.522
    8CHTO   C25 3275   9.238   0.908   0.616
    8CHTO   H53 3276   9.187   0.876   0.709
    8CHTO   O17 3277   9.288   0.789   0.548
    8CHTO   C32 3278   9.188   0.689   0.527
    8CHTO   H60 3279   9.143   0.663   0.623
    8CHTO   C36 3280   9.256   0.564   0.468
    8CHTO   O25 3281   9.352   0.509   0.559
    8CHTO   H40 3282   9.393   0.434   0.520
    8CHTO   O15 3283   9.364   0.999   0.654
    8CHTO   C19 3284   9.448   0.968   0.769
    8CHTO   H47 3285   9.524   1.048   0.768
    8CHTO   C20 3286   9.373   0.972   0.906
    8CHTO   H48 3287   9.288   0.902   0.908
    8CHTO   O19 3288   9.321   1.105   0.921
    8CHTO   H35 3289   9.268   1.111   0.998
    8CHTO   C21 3290   9.469   0.934   1.027
    8CHTO   H49 3291   9.544   1.013   1.038
    8CHTO    N4 3292   9.397   0.926   1.157
    8CHTO   H41 3293   9.466   0.903   1.237
    8CHTO   H42 3294   9.321   0.849   1.153
    8CHTO   C22 3295   9.545   0.803   0.993
    8CHTO   H50 3296   9.473   0.721   0.988
    8CHTO   O14 3297   9.614   0.816   0.867
    8CHTO   C23 3298   9.526   0.834   0.755
    8CHTO   H51 3299   9.459   0.747   0.752
    8CHTO   C34 3300   9.612   0.831   0.628
    8CHTO   O23 3301   9.666   0.700   0.606
    8CHTO   H38 3302   9.719   0.701   0.528
    8CHTO   O16 3303   9.649   0.775   1.089
    8CHTO   C24 3304   9.711   0.628   1.073
    8CHTO   H52 3305   9.692   0.586   0.975
    8CHTO   C26 3306   9.651   0.537   1.181
    8CHTO   H54 3307   9.660   0.588   1.280
    8CHTO   O20 3308   9.511   0.521   1.152
    8CHTO   H36 3309   9.468   0.473   1.221
    8CHTO   C30 3310   9.725   0.400   1.190
    8CHTO   H58 3311   9.706   0.341   1.098
    8CHTO    N6 3312   9.676   0.317   1.303
    8CHTO   H45 3313   9.694   0.367   1.397
    8CHTO   H46 3314   9.726   0.221   1.304
    8CHTO   C33 3315   9.879   0.424   1.196
    8CHTO   H61 3316   9.905   0.476   1.290
    8CHTO   O18 3317   9.919   0.506   1.085
    8CHTO   C28 3318   9.865   0.639   1.089
    8CHTO   H56 3319   9.887   0.687   1.184
    8CHTO   C35 3320   9.926   0.723   0.975
    8CHTO   O24 3321   0.068   0.735   0.987
    8CHTO   H39 3322   0.101   0.787   0.917
    8CHTO    O9 3323   9.953   0.300   1.200
    8CHTO   C13 3324   0.111   0.321   1.217
    8CHTO   H26 3325   0.129   0.423   1.258
    8CHTO   C11 3326   0.181   0.302   1.075
    8CHTO   H24 3327   0.170   0.396   1.019
    8CHTO    O8 3328   0.116   0.197   1.001
    8CHTO    H3 3329   0.152   0.191   0.915
    8CHTO    C9 3330   0.332   0.274   1.099
    8CHTO   H22 3331   0.368   0.355   1.164
    8CHTO    N2 3332   0.415   0.286   0.976
    8CHTO   H10 3333   0.399   0.383   0.931
    8CHTO   H11 3334   0.389   0.208   0.907
    8CHTO    C7 3335   0.347   0.137   1.178
    8CHTO   H20 3336   0.437   0.152   1.241
    8CHTO    O4 3337   0.233   0.107   1.262
    8CHTO   C14 3338   0.172   0.220   1.325
    8CHTO   H27 3339   0.250   0.274   1.384
    8CHTO   C18 3340   0.067   0.167   1.426
    8CHTO   O13 3341   0.010   0.274   1.502
    8CHTO    H7 3342   9.947   0.240   1.562
    8CHTO    O2 3343   0.374   0.008   1.078
    8CHTO    C1 3344   0.363   9.877   1.137
    8CHTO   H14 3345   0.266   9.869   1.192
    8CHTO    C2 3346   0.481   9.838   1.236
    8CHTO   H15 3347   0.574   9.863   1.184
    8CHTO    O6 3348   0.469   9.918   1.355
    8CHTO    H1 3349   0.543   9.904   1.411
    8CHTO    C3 3350   0.478   9.681   1.273
    8CHTO   H16 3351   0.391   9.662   1.337
    8CHTO    N1 3352   0.600   9.640   1.351
    8CHTO    H8 3353   0.689   9.657   1.292
    8CHTO    H9 3354   0.593   9.535   1.377
    8CHTO    C4 3355   0.456   9.595   1.143
    8CHTO   H17 3356   0.545   9.603   1.080
    8CHTO    O1 3357   0.340   9.641   1.072
    8CHTO    C5 3358   0.355   9.774   1.020
    8CHTO   H18 3359   0.447   9.782   0.962
    8CHTO   C16 3360   0.235   9.804   0.926
    8CHTO   O11 3361   0.237   9.717   0.812
    8CHTO    H5 3362   0.164   9.737   0.757
    8CHTO    O3 3363   0.431   9.456   1.175
    8CHTO    C6 3364   0.420   9.364   1.061
    8CHTO   H19 3365   0.388   9.415   0.969
    8CHTO    C8 3366   0.557   9.294   1.031
    8CHTO   H21 3367   0.593   9.248   1.123
    8CHTO    O7 3368   0.649   9.396   0.988
    8CHTO    H2 3369   0.734   9.360   0.976
    8CHTO   C12 3370   0.537   9.181   0.921
    8CHTO   H25 3371   0.504   9.233   0.828
    8CHTO    N3 3372   0.665   9.111   0.890
    8CHTO   H12 3373   0.649   9.037   0.812
    8CHTO   H13 3374   0.704   9.063   0.979
    8CHTO   C15 3375   0.421   9.085   0.968
    8CHTO   H28 3376   0.448   9.030   1.058
    8CHTO   O10 3377   0.377   8.987   0.861
    8CHTO    H4 3378   0.447   8.930   0.839
    8CHTO    O5 3379   0.301   9.160   0.990
    8CHTO   C10 3380   0.311   9.258   1.094
    8CHTO   H23 3381   0.336   9.208   1.187
    8CHTO   C17 3382   0.173   9.323   1.111
    8CHTO   O12 3383   0.076   9.228   1.157
    8CHTO    H6 3384   9.993   9.271   1.167
    9CHTO  H203 3385   5.682   1.203   5.772
    9CHTO   O82 3386   5.770   1.232   5.762
    9CHTO  C123 3387   5.812   1.304   5.879
    9CHTO  H227 3388   5.799   1.239   5.967
    9CHTO   O77 3389   5.954   1.329   5.855
    9CHTO  C118 3390   6.022   1.391   5.965
    9CHTO  H222 3391   6.009   1.330   6.055
    9CHTO  C125 3392   6.175   1.399   5.931
    9CHTO   O84 3393   6.234   1.268   5.933
    9CHTO  H205 3394   6.325   1.275   5.915
    9CHTO  C114 3395   5.963   1.531   5.990
    9CHTO  H218 3396   5.979   1.593   5.902
    9CHTO  C116 3397   5.808   1.521   6.015
    9CHTO  H220 3398   5.791   1.469   6.112
    9CHTO   O79 3399   5.755   1.654   6.031
    9CHTO  H201 3400   5.664   1.650   6.052
    9CHTO  C120 3401   5.739   1.442   5.897
    9CHTO  H224 3402   5.751   1.504   5.806
    9CHTO   N21 3403   5.593   1.426   5.920
    9CHTO  H211 3404   5.573   1.336   5.976
    9CHTO  H212 3405   5.541   1.423   5.825
    9CHTO   O75 3406   6.039   1.582   6.101
    9CHTO  C112 3407   6.041   1.747   6.121
    9CHTO  H216 3408   5.937   1.783   6.131
    9CHTO   O73 3409   6.107   1.805   6.007
    9CHTO  C113 3410   6.116   1.948   6.014
    9CHTO  H217 3411   6.014   1.989   6.027
    9CHTO  C124 3412   6.169   2.003   5.881
    9CHTO   O83 3413   6.080   1.977   5.772
    9CHTO  H204 3414   6.116   2.014   5.693
    9CHTO  C109 3415   6.203   1.992   6.134
    9CHTO  H213 3416   6.304   1.949   6.118
    9CHTO  C110 3417   6.139   1.936   6.265
    9CHTO  H214 3418   6.043   1.985   6.280
    9CHTO   O78 3419   6.223   1.970   6.377
    9CHTO  H200 3420   6.182   1.944   6.457
    9CHTO  C111 3421   6.120   1.782   6.253
    9CHTO  H215 3422   6.219   1.735   6.244
    9CHTO   N19 3423   6.053   1.720   6.370
    9CHTO  H207 3424   6.046   1.613   6.357
    9CHTO  H208 3425   5.954   1.762   6.383
    9CHTO   O74 3426   6.214   2.138   6.136
    9CHTO  C115 3427   6.343   2.196   6.211
    9CHTO  H219 3428   6.398   2.117   6.264
    9CHTO   O76 3429   6.447   2.257   6.111
    9CHTO  C122 3430   6.392   2.360   6.026
    9CHTO  H226 3431   6.352   2.310   5.938
    9CHTO  C126 3432   6.511   2.449   5.973
    9CHTO   O85 3433   6.587   2.511   6.078
    9CHTO  H206 3434   6.632   2.445   6.127
    9CHTO  C121 3435   6.279   2.448   6.093
    9CHTO  H225 3436   6.290   2.553   6.057
    9CHTO   O81 3437   6.150   2.403   6.050
    9CHTO  H202 3438   6.142   2.413   5.957
    9CHTO  C119 3439   6.295   2.449   6.249
    9CHTO  H223 3440   6.396   2.488   6.263
    9CHTO  C117 3441   6.292   2.304   6.313
    9CHTO  H221 3442   6.193   2.269   6.341
    9CHTO   N20 3443   6.370   2.300   6.442
    9CHTO  H209 3444   6.330   2.373   6.511
    9CHTO  H210 3445   6.474   2.321   6.423
    9CHTO   O80 3446   6.210   2.557   6.324
    9CHTO  C103 3447   6.058   2.578   6.287
    9CHTO  H190 3448   6.043   2.577   6.179
    9CHTO  C101 3449   5.954   2.477   6.352
    9CHTO  H188 3450   5.980   2.465   6.458
    9CHTO   O68 3451   5.967   2.340   6.283
    9CHTO  H168 3452   5.913   2.277   6.327
    9CHTO   C99 3453   5.804   2.533   6.343
    9CHTO  H186 3454   5.773   2.536   6.236
    9CHTO   N17 3455   5.703   2.448   6.415
    9CHTO  H174 3456   5.725   2.446   6.521
    9CHTO  H175 3457   5.702   2.349   6.373
    9CHTO   C97 3458   5.801   2.680   6.392
    9CHTO  H184 3459   5.828   2.681   6.499
    9CHTO   O64 3460   5.892   2.759   6.314
    9CHTO  C104 3461   6.029   2.725   6.336
    9CHTO  H191 3462   6.056   2.733   6.442
    9CHTO  C108 3463   6.118   2.826   6.262
    9CHTO   O71 3464   6.102   2.957   6.316
    9CHTO  H171 3465   6.155   3.018   6.267
    9CHTO   O62 3466   5.675   2.745   6.370
    9CHTO   C91 3467   5.629   2.832   6.476
    9CHTO  H178 3468   5.614   2.768   6.563
    9CHTO   C92 3469   5.488   2.886   6.434
    9CHTO  H179 3470   5.423   2.802   6.405
    9CHTO   O66 3471   5.427   2.942   6.551
    9CHTO  H166 3472   5.338   2.966   6.533
    9CHTO   C93 3473   5.496   2.998   6.323
    9CHTO  H180 3474   5.404   3.057   6.331
    9CHTO   N16 3475   5.495   2.944   6.185
    9CHTO  H172 3476   5.581   2.880   6.169
    9CHTO  H173 3477   5.495   3.025   6.113
    9CHTO   C94 3478   5.620   3.093   6.348
    9CHTO  H181 3479   5.705   3.068   6.283
    9CHTO   O61 3480   5.668   3.082   6.483
    9CHTO   C95 3481   5.726   2.954   6.513
    9CHTO  H182 3482   5.819   2.945   6.458
    9CHTO  C106 3483   5.765   2.954   6.665
    9CHTO   O69 3484   5.869   3.050   6.691
    9CHTO  H169 3485   5.893   3.046   6.782
    9CHTO   O63 3486   5.579   3.233   6.328
    9CHTO   C96 3487   5.697   3.327   6.296
    9CHTO  H183 3488   5.765   3.273   6.230
    9CHTO   C98 3489   5.779   3.376   6.421
    9CHTO  H185 3490   5.816   3.290   6.478
    9CHTO   O67 3491   5.896   3.444   6.373
    9CHTO  H167 3492   5.952   3.466   6.445
    9CHTO  C102 3493   5.695   3.478   6.512
    9CHTO  H189 3494   5.767   3.553   6.549
    9CHTO   N18 3495   5.636   3.418   6.634
    9CHTO  H176 3496   5.714   3.378   6.697
    9CHTO  H177 3497   5.568   3.338   6.606
    9CHTO  C105 3498   5.589   3.552   6.425
    9CHTO  H192 3499   5.498   3.492   6.420
    9CHTO   O65 3500   5.637   3.572   6.291
    9CHTO  C100 3501   5.636   3.449   6.215
    9CHTO  H187 3502   5.530   3.427   6.191
    9CHTO  C107 3503   5.707   3.469   6.080
    9CHTO   O70 3504   5.847   3.495   6.096
    9CHTO  H170 3505   5.887   3.506   6.012
    9CHTO   O57 3506   5.556   3.689   6.497
    9CHTO   C85 3507   5.459   3.779   6.440
    9CHTO  H157 3508   5.511   3.831   6.357
    9CHTO   C83 3509   5.426   3.889   6.546
    9CHTO  H155 3510   5.519   3.938   6.575
    9CHTO   O56 3511   5.374   3.825   6.665
    9CHTO  H135 3512   5.440   3.771   6.704
    9CHTO   C81 3513   5.331   3.996   6.483
    9CHTO  H153 3514   5.387   4.046   6.404
    9CHTO   N14 3515   5.303   4.107   6.578
    9CHTO  H141 3516   5.394   4.148   6.615
    9CHTO  H142 3517   5.245   4.070   6.660
    9CHTO   C79 3518   5.204   3.927   6.415
    9CHTO  H151 3519   5.213   3.944   6.308
    9CHTO   O52 3520   5.201   3.782   6.435
    9CHTO   C86 3521   5.323   3.713   6.392
    9CHTO  H158 3522   5.311   3.611   6.436
    9CHTO   C90 3523   5.322   3.693   6.238
    9CHTO   O60 3524   5.210   3.613   6.196
    9CHTO  H138 3525   5.213   3.601   6.103
    9CHTO   O50 3526   5.074   3.978   6.450
    9CHTO   C73 3527   4.944   3.951   6.393
    9CHTO  H145 3528   4.911   3.850   6.422
    9CHTO   C74 3529   4.948   3.961   6.238
    9CHTO  H146 3530   5.022   3.887   6.201
    9CHTO   O54 3531   4.820   3.917   6.187
    9CHTO  H133 3532   4.821   3.917   6.093
    9CHTO   C75 3533   4.986   4.108   6.197
    9CHTO  H147 3534   5.084   4.132   6.240
    9CHTO   N13 3535   5.000   4.128   6.051
    9CHTO  H139 3536   5.077   4.063   6.012
    9CHTO  H140 3537   5.028   4.231   6.030
    9CHTO   C76 3538   4.880   4.208   6.263
    9CHTO  H148 3539   4.782   4.185   6.220
    9CHTO   O49 3540   4.875   4.189   6.408
    9CHTO   C77 3541   4.840   4.055   6.446
    9CHTO  H149 3542   4.742   4.031   6.405
    9CHTO   C88 3543   4.825   4.045   6.599
    9CHTO   O58 3544   4.712   4.128   6.646
    9CHTO  H136 3545   4.704   4.121   6.739
    9CHTO   O51 3546   4.922   4.361   6.237
    9CHTO   C78 3547   4.823   4.468   6.295
    9CHTO  H150 3548   4.781   4.435   6.393
    9CHTO   C80 3549   4.705   4.496   6.198
    9CHTO  H152 3550   4.747   4.518   6.097
    9CHTO   O55 3551   4.627   4.376   6.188
    9CHTO  H134 3552   4.560   4.386   6.123
    9CHTO   C84 3553   4.616   4.618   6.246
    9CHTO  H156 3554   4.565   4.587   6.337
    9CHTO   N15 3555   4.510   4.655   6.146
    9CHTO  H143 3556   4.555   4.686   6.054
    9CHTO  H144 3557   4.450   4.736   6.185
    9CHTO   C87 3558   4.706   4.740   6.281
    9CHTO  H159 3559   4.752   4.781   6.191
    9CHTO   O53 3560   4.815   4.693   6.380
    9CHTO   C82 3561   4.902   4.597   6.319
    9CHTO  H154 3562   4.942   4.636   6.225
    9CHTO   C89 3563   5.024   4.573   6.412
    9CHTO   O59 3564   5.103   4.691   6.423
    9CHTO  H137 3565   5.176   4.675   6.480
    9CHTO   O45 3566   4.617   4.858   6.352
    9CHTO   C67 3567   4.690   4.950   6.435
    9CHTO  H124 3568   4.745   4.893   6.510
    9CHTO   C65 3569   4.792   5.037   6.352
    9CHTO  H122 3570   4.752   5.042   6.251
    9CHTO   O44 3571   4.916   4.963   6.349
    9CHTO  H102 3572   4.976   5.004   6.289
    9CHTO   C63 3573   4.799   5.187   6.402
    9CHTO  H120 3574   4.710   5.239   6.366
    9CHTO   N11 3575   4.908   5.271   6.343
    9CHTO  H108 3576   4.905   5.265   6.236
    9CHTO  H109 3577   5.003   5.236   6.378
    9CHTO   C61 3578   4.791   5.189   6.558
    9CHTO  H118 3579   4.790   5.294   6.589
    9CHTO   O40 3580   4.666   5.131   6.608
    9CHTO   C68 3581   4.591   5.042   6.518
    9CHTO  H125 3582   4.530   5.105   6.449
    9CHTO   C72 3583   4.492   4.962   6.606
    9CHTO   O48 3584   4.397   4.886   6.531
    9CHTO  H105 3585   4.340   4.841   6.589
    9CHTO   O38 3586   4.901   5.119   6.620
    9CHTO   C55 3587   4.923   5.148   6.759
    9CHTO  H112 3588   4.831   5.186   6.806
    9CHTO   C56 3589   5.043   5.250   6.775
    9CHTO  H113 3590   5.129   5.206   6.721
    9CHTO   O42 3591   5.010   5.372   6.707
    9CHTO  H100 3592   5.084   5.431   6.707
    9CHTO   C57 3593   5.077   5.275   6.927
    9CHTO  H114 3594   4.994   5.331   6.969
    9CHTO   N10 3595   5.200   5.357   6.945
    9CHTO  H106 3596   5.249   5.333   7.038
    9CHTO  H107 3597   5.174   5.462   6.945
    9CHTO   C58 3598   5.089   5.139   7.003
    9CHTO  H115 3599   5.182   5.087   6.971
    9CHTO   O37 3600   4.975   5.055   6.977
    9CHTO   C59 3601   4.960   5.019   6.838
    9CHTO  H116 3602   5.053   4.977   6.801
    9CHTO   C70 3603   4.850   4.913   6.825
    9CHTO   O46 3604   4.883   4.792   6.894
    9CHTO  H103 3605   4.814   4.730   6.882
    9CHTO   O39 3606   5.094   5.169   7.165
    9CHTO   C60 3607   5.081   5.057   7.254
    9CHTO  H117 3608   4.985   5.008   7.236
    9CHTO   C62 3609   5.194   4.950   7.236
    9CHTO  H119 3610   5.181   4.907   7.134
    9CHTO   O43 3611   5.322   5.016   7.242
    9CHTO  H101 3612   5.391   4.955   7.225
    9CHTO   C66 3613   5.178   4.833   7.346
    9CHTO  H123 3614   5.078   4.790   7.335
    9CHTO   N12 3615   5.274   4.722   7.326
    9CHTO  H110 3616   5.375   4.759   7.332
    9CHTO  H111 3617   5.255   4.673   7.232
    9CHTO   C69 3618   5.186   4.896   7.487
    9CHTO  H126 3619   5.283   4.950   7.499
    9CHTO   O41 3620   5.069   4.997   7.500
    9CHTO   C64 3621   5.078   5.111   7.400
    9CHTO  H121 3622   5.170   5.169   7.418
    9CHTO   C71 3623   4.957   5.206   7.420
    9CHTO   O47 3624   4.963   5.268   7.548
    9CHTO  H104 3625   4.889   5.325   7.559
    9CHTO   O34 3626   5.175   4.789   7.602
    9CHTO   C49 3627   5.218   4.811   7.750
    9CHTO   H91 3628   5.326   4.829   7.749
    9CHTO   C47 3629   5.185   4.683   7.828
    9CHTO   H89 3630   5.223   4.701   7.931
    9CHTO   O33 3631   5.255   4.570   7.773
    9CHTO   H70 3632   5.348   4.581   7.784
    9CHTO   C45 3633   5.025   4.657   7.829
    9CHTO   H87 3634   4.999   4.600   7.738
    9CHTO    N8 3635   4.989   4.574   7.947
    9CHTO   H75 3636   5.045   4.482   7.946
    9CHTO   H76 3637   4.883   4.552   7.946
    9CHTO   C43 3638   4.947   4.797   7.814
    9CHTO   H85 3639   4.944   4.816   7.707
    9CHTO   O29 3640   5.019   4.900   7.884
    9CHTO   C50 3641   5.144   4.931   7.819
    9CHTO   H92 3642   5.123   5.007   7.742
    9CHTO   C54 3643   5.236   5.005   7.918
    9CHTO   O36 3644   5.182   5.133   7.952
    9CHTO   H72 3645   5.238   5.176   8.013
    9CHTO   O27 3646   4.808   4.791   7.851
    9CHTO   C37 3647   4.707   4.893   7.858
    9CHTO   H79 3648   4.739   4.973   7.927
    9CHTO   C38 3649   4.683   4.961   7.719
    9CHTO   H80 3650   4.667   4.882   7.644
    9CHTO   O31 3651   4.802   5.034   7.685
    9CHTO   H68 3652   4.795   5.067   7.597
    9CHTO   C39 3653   4.557   5.057   7.722
    9CHTO   H81 3654   4.582   5.142   7.785
    9CHTO    N7 3655   4.522   5.112   7.587
    9CHTO   H73 3656   4.437   5.179   7.594
    9CHTO   H74 3657   4.500   5.031   7.518
    9CHTO   C40 3658   4.434   4.984   7.789
    9CHTO   H82 3659   4.397   4.904   7.724
    9CHTO   O26 3660   4.474   4.934   7.918
    9CHTO   C41 3661   4.576   4.831   7.910
    9CHTO   H83 3662   4.543   4.751   7.842
    9CHTO   C52 3663   4.593   4.769   8.051
    9CHTO   O35 3664   4.470   4.708   8.100
    9CHTO   H71 3665   4.485   4.672   8.185
    9CHTO   O28 3666   4.324   5.075   7.816
    9CHTO   C42 3667   4.194   5.030   7.868
    9CHTO   H84 3668   4.140   5.124   7.884
    9CHTO   C44 3669   4.194   4.957   8.006
    9CHTO   H86 3670   4.250   4.863   7.996
    9CHTO   O32 3671   4.264   5.042   8.099
    9CHTO   H69 3672   4.274   4.999   8.181
    9CHTO   C48 3673   4.049   4.920   8.056
    9CHTO   H90 3674   3.995   5.013   8.077
    9CHTO    N9 3675   4.049   4.843   8.185
    9CHTO   H77 3676   4.102   4.750   8.172
    9CHTO   H78 3677   3.948   4.824   8.218
    9CHTO   C51 3678   3.973   4.844   7.941
    9CHTO   H93 3679   4.024   4.749   7.923
    9CHTO   O30 3680   3.975   4.928   7.824
    9CHTO   C46 3681   4.110   4.946   7.766
    9CHTO   H88 3682   4.157   4.848   7.751
    9CHTO   C53 3683   4.089   5.016   7.630
    9CHTO   O72 3684   4.205   5.009   7.548
    9CHTO  H199 3685   4.188   5.051   7.466
    9CHTO   O22 3686   3.834   4.822   7.970
    9CHTO   C31 3687   3.758   4.717   7.899
    9CHTO   H59 3688   3.652   4.730   7.929
    9CHTO   C29 3689   3.763   4.728   7.745
    9CHTO   H57 3690   3.869   4.728   7.716
    9CHTO   O21 3691   3.710   4.856   7.707
    9CHTO   H37 3692   3.618   4.861   7.724
    9CHTO   C27 3693   3.690   4.608   7.671
    9CHTO   H55 3694   3.582   4.619   7.685
    9CHTO    N5 3695   3.718   4.608   7.525
    9CHTO   H43 3696   3.824   4.596   7.507
    9CHTO   H44 3697   3.683   4.700   7.480
    9CHTO   C25 3698   3.733   4.472   7.736
    9CHTO   H53 3699   3.840   4.455   7.716
    9CHTO   O17 3700   3.714   4.476   7.880
    9CHTO   C32 3701   3.798   4.573   7.945
    9CHTO   H60 3702   3.902   4.555   7.918
    9CHTO   C36 3703   3.783   4.556   8.098
    9CHTO   O25 3704   3.839   4.431   8.140
    9CHTO   H40 3705   3.831   4.423   8.233
    9CHTO   O15 3706   3.648   4.352   7.678
    9CHTO   C19 3707   3.696   4.214   7.671
    9CHTO   H47 3708   3.621   4.164   7.609
    9CHTO   C20 3709   3.836   4.199   7.604
    9CHTO   H48 3710   3.912   4.260   7.655
    9CHTO   O19 3711   3.822   4.249   7.470
    9CHTO   H35 3712   3.906   4.250   7.427
    9CHTO   C21 3713   3.886   4.049   7.604
    9CHTO   H49 3714   3.823   3.992   7.536
    9CHTO    N4 3715   4.026   4.037   7.554
    9CHTO   H41 3716   4.056   3.933   7.553
    9CHTO   H42 3717   4.093   4.092   7.619
    9CHTO   C22 3718   3.868   3.989   7.746
    9CHTO   H50 3719   3.936   4.040   7.814
    9CHTO   O14 3720   3.733   4.004   7.792
    9CHTO   C23 3721   3.694   4.141   7.809
    9CHTO   H51 3722   3.763   4.188   7.881
    9CHTO   C34 3723   3.553   4.145   7.871
    9CHTO   O23 3724   3.553   4.088   8.003
    9CHTO   H38 3725   3.467   4.093   8.039
    9CHTO   O16 3726   3.892   3.846   7.746
    9CHTO   C24 3727   3.953   3.793   7.884
    9CHTO   H52 3728   3.928   3.858   7.968
    9CHTO   C26 3729   4.107   3.784   7.872
    9CHTO   H54 3730   4.132   3.722   7.783
    9CHTO   O20 3731   4.158   3.917   7.851
    9CHTO   H36 3732   4.250   3.914   7.835
    9CHTO   C30 3733   4.170   3.718   7.998
    9CHTO   H58 3734   4.158   3.785   8.085
    9CHTO    N6 3735   4.317   3.697   7.982
    9CHTO   H45 3736   4.336   3.630   7.900
    9CHTO   H46 3737   4.359   3.655   8.072
    9CHTO   C33 3738   4.095   3.586   8.035
    9CHTO   H61 3739   4.116   3.509   7.958
    9CHTO   O18 3740   3.953   3.609   8.040
    9CHTO   C28 3741   3.895   3.654   7.916
    9CHTO   H56 3742   3.919   3.585   7.835
    9CHTO   C35 3743   3.742   3.662   7.934
    9CHTO   O24 3744   3.684   3.534   7.963
    9CHTO   H39 3745   3.591   3.543   7.971
    9CHTO    O9 3746   4.144   3.531   8.159
    9CHTO   C13 3747   4.078   3.392   8.199
    9CHTO   H26 3748   4.044   3.341   8.106
    9CHTO   C11 3749   3.958   3.419   8.299
    9CHTO   H24 3750   3.872   3.456   8.240
    9CHTO    O8 3751   3.994   3.521   8.394
    9CHTO    H3 3752   3.921   3.543   8.447
    9CHTO    C9 3753   3.919   3.285   8.367
    9CHTO   H22 3754   3.903   3.214   8.284
    9CHTO    N2 3755   3.789   3.290   8.438
    9CHTO   H10 3756   3.712   3.323   8.371
    9CHTO   H11 3757   3.796   3.355   8.523
    9CHTO    C7 3758   4.042   3.233   8.453
    9CHTO   H20 3759   4.038   3.122   8.439
    9CHTO    O4 3760   4.169   3.283   8.406
    9CHTO   C14 3761   4.185   3.293   8.264
    9CHTO   H27 3762   4.172   3.192   8.220
    9CHTO   C18 3763   4.333   3.334   8.239
    9CHTO   O13 3764   4.362   3.342   8.099
    9CHTO    H7 3765   4.452   3.367   8.088
    9CHTO    O2 3766   4.030   3.267   8.615
    9CHTO    C1 3767   4.149   3.247   8.693
    9CHTO   H14 3768   4.234   3.301   8.645
    9CHTO    C2 3769   4.189   3.095   8.713
    9CHTO   H15 3770   4.097   3.041   8.740
    9CHTO    O6 3771   4.238   3.045   8.587
    9CHTO    H1 3772   4.253   2.952   8.593
    9CHTO    C3 3773   4.300   3.076   8.828
    9CHTO   H16 3774   4.396   3.117   8.792
    9CHTO    N1 3775   4.324   2.931   8.860
    9CHTO    H8 3776   4.233   2.886   8.897
    9CHTO    H9 3777   4.402   2.922   8.934
    9CHTO    C4 3778   4.262   3.162   8.954
    9CHTO   H17 3779   4.171   3.120   8.997
    9CHTO    O1 3780   4.241   3.299   8.915
    9CHTO    C5 3781   4.126   3.317   8.830
    9CHTO   H18 3782   4.038   3.272   8.877
    9CHTO   C16 3783   4.102   3.469   8.813
    9CHTO   O11 3784   4.068   3.530   8.938
    9CHTO    H5 3785   4.054   3.622   8.925
    9CHTO    O3 3786   4.367   3.162   9.052
    9CHTO    C6 3787   4.339   3.234   9.177
    9CHTO   H19 3788   4.267   3.314   9.165
    9CHTO    C8 3789   4.283   3.137   9.287
    9CHTO   H21 3790   4.351   3.052   9.296
    9CHTO    O7 3791   4.155   3.092   9.242
    9CHTO    H2 3792   4.121   3.026   9.300
    9CHTO   C12 3793   4.275   3.213   9.426
    9CHTO   H25 3794   4.200   3.294   9.413
    9CHTO    N3 3795   4.223   3.123   9.534
    9CHTO   H12 3796   4.215   3.178   9.627
    9CHTO   H13 3797   4.288   3.038   9.547
    9CHTO   C15 3798   4.414   3.277   9.459
    9CHTO   H28 3799   4.491   3.201   9.475
    9CHTO   O10 3800   4.410   3.372   9.580
    9CHTO    H4 3801   4.385   3.324   9.657
    9CHTO    O5 3802   4.455   3.365   9.353
    9CHTO   C10 3803   4.472   3.300   9.225
    9CHTO   H23 3804   4.550   3.224   9.235
    9CHTO   C17 3805   4.521   3.404   9.124
    9CHTO   O12 3806   4.646   3.460   9.162
    9CHTO    H6 3807   4.673   3.524   9.098
   10CHTO  H203 3808   5.748   9.112   6.269
   10CHTO   O82 3809   5.686   9.054   6.228
   10CHTO  C123 3810   5.567   9.043   6.307
   10CHTO  H227 3811   5.522   9.143   6.317
   10CHTO   O77 3812   5.482   8.958   6.224
   10CHTO  C118 3813   5.352   8.936   6.279
   10CHTO  H222 3814   5.303   9.032   6.299
   10CHTO  C125 3815   5.266   8.857   6.174
   10CHTO   O84 3816   5.239   8.935   6.058
   10CHTO  H205 3817   5.191   8.884   5.996
   10CHTO  C114 3818   5.364   8.858   6.412
   10CHTO  H218 3819   5.412   8.762   6.391
   10CHTO  C116 3820   5.455   8.935   6.513
   10CHTO  H220 3821   5.400   9.027   6.547
   10CHTO   O79 3822   5.473   8.853   6.630
   10CHTO  H201 3823   5.520   8.901   6.696
   10CHTO  C120 3824   5.593   8.975   6.447
   10CHTO  H224 3825   5.649   8.880   6.433
   10CHTO   N21 3826   5.674   9.061   6.537
   10CHTO  H211 3827   5.650   9.166   6.521
   10CHTO  H212 3828   5.779   9.044   6.520
   10CHTO   O75 3829   5.228   8.839   6.454
   10CHTO  C112 3830   5.201   8.721   6.566
   10CHTO  H216 3831   5.235   8.756   6.664
   10CHTO   O73 3832   5.271   8.602   6.523
   10CHTO  C113 3833   5.258   8.493   6.615
   10CHTO  H217 3834   5.291   8.526   6.717
   10CHTO  C124 3835   5.351   8.379   6.572
   10CHTO   O83 3836   5.489   8.416   6.581
   10CHTO  H204 3837   5.543   8.343   6.558
   10CHTO  C109 3838   5.110   8.447   6.622
   10CHTO  H213 3839   5.083   8.411   6.522
   10CHTO  C110 3840   5.019   8.567   6.664
   10CHTO  H214 3841   5.041   8.592   6.768
   10CHTO   O78 3842   4.881   8.527   6.657
   10CHTO  H200 3843   4.826   8.594   6.692
   10CHTO  C111 3844   5.046   8.691   6.572
   10CHTO  H215 3845   5.012   8.667   6.470
   10CHTO   N19 3846   4.971   8.812   6.614
   10CHTO  H207 3847   4.992   8.894   6.546
   10CHTO  H208 3848   5.000   8.841   6.714
   10CHTO   O74 3849   5.098   8.336   6.716
   10CHTO  C115 3850   4.975   8.237   6.690
   10CHTO  H219 3851   4.905   8.278   6.616
   10CHTO   O76 3852   5.021   8.102   6.630
   10CHTO  C122 3853   5.126   8.041   6.708
   10CHTO  H226 3854   5.218   8.095   6.683
   10CHTO  C126 3855   5.147   7.895   6.656
   10CHTO   O85 3856   5.033   7.811   6.673
   10CHTO  H206 3857   4.963   7.841   6.618
   10CHTO  C121 3858   5.100   8.046   6.865
   10CHTO  H225 3859   5.122   7.946   6.908
   10CHTO   O81 3860   5.193   8.138   6.923
   10CHTO  H202 3861   5.281   8.107   6.913
   10CHTO  C119 3862   4.951   8.084   6.898
   10CHTO  H223 3863   4.894   8.001   6.854
   10CHTO  C117 3864   4.903   8.217   6.828
   10CHTO  H221 3865   4.925   8.308   6.884
   10CHTO   N20 3866   4.753   8.219   6.814
   10CHTO  H209 3867   4.707   8.209   6.911
   10CHTO  H210 3868   4.721   8.139   6.749
   10CHTO   O80 3869   4.908   8.071   7.053
   10CHTO  C103 3870   5.009   8.115   7.168
   10CHTO  H190 3871   5.109   8.075   7.149
   10CHTO  C101 3872   5.023   8.270   7.199
   10CHTO  H188 3873   4.924   8.311   7.220
   10CHTO   O68 3874   5.081   8.344   7.077
   10CHTO  H168 3875   5.083   8.436   7.093
   10CHTO   C99 3876   5.115   8.290   7.328
   10CHTO  H186 3877   5.217   8.250   7.306
   10CHTO   N17 3878   5.134   8.433   7.371
   10CHTO  H174 3879   5.039   8.476   7.399
   10CHTO  H175 3880   5.180   8.490   7.291
   10CHTO   C97 3881   5.060   8.205   7.445
   10CHTO  H184 3882   4.964   8.247   7.479
   10CHTO   O64 3883   5.047   8.067   7.406
   10CHTO  C104 3884   4.956   8.044   7.298
   10CHTO  H191 3885   4.856   8.082   7.321
   10CHTO  C108 3886   4.939   7.893   7.278
   10CHTO   O71 3887   4.882   7.831   7.394
   10CHTO  H171 3888   4.875   7.739   7.380
   10CHTO   O62 3889   5.155   8.197   7.554
   10CHTO   C91 3890   5.102   8.201   7.687
   10CHTO  H178 3891   5.043   8.293   7.696
   10CHTO   C92 3892   5.224   8.217   7.784
   10CHTO  H179 3893   5.285   8.303   7.753
   10CHTO   O66 3894   5.173   8.252   7.914
   10CHTO  H166 3895   5.244   8.272   7.972
   10CHTO   C93 3896   5.308   8.084   7.795
   10CHTO  H180 3897   5.363   8.089   7.891
   10CHTO   N16 3898   5.413   8.071   7.691
   10CHTO  H172 3899   5.368   8.069   7.593
   10CHTO  H173 3900   5.472   7.982   7.708
   10CHTO   C94 3901   5.213   7.957   7.798
   10CHTO  H181 3902   5.210   7.906   7.702
   10CHTO   O61 3903   5.078   7.994   7.830
   10CHTO   C95 3904   5.014   8.074   7.729
   10CHTO  H182 3905   4.996   8.012   7.641
   10CHTO  C106 3906   4.873   8.118   7.781
   10CHTO   O69 3907   4.788   8.004   7.802
   10CHTO  H169 3908   4.704   8.033   7.833
   10CHTO   O63 3909   5.265   7.861   7.907
   10CHTO   C96 3910   5.201   7.717   7.902
   10CHTO  H183 3911   5.206   7.681   7.799
   10CHTO   C98 3912   5.051   7.710   7.948
   10CHTO  H185 3913   4.988   7.774   7.886
   10CHTO   O67 3914   5.003   7.576   7.926
   10CHTO  H167 3915   4.911   7.571   7.944
   10CHTO  C102 3916   5.037   7.745   8.104
   10CHTO  H189 3917   4.948   7.691   8.139
   10CHTO   N18 3918   5.011   7.888   8.135
   10CHTO  H176 3919   4.918   7.919   8.090
   10CHTO  H177 3920   5.092   7.949   8.098
   10CHTO  C105 3921   5.160   7.690   8.183
   10CHTO  H192 3922   5.234   7.770   8.196
   10CHTO   O65 3923   5.226   7.581   8.115
   10CHTO  C100 3924   5.292   7.623   7.994
   10CHTO  H187 3925   5.381   7.680   8.024
   10CHTO  C107 3926   5.344   7.498   7.918
   10CHTO   O70 3927   5.239   7.407   7.883
   10CHTO  H170 3928   5.276   7.334   7.836
   10CHTO   O57 3929   5.103   7.648   8.320
   10CHTO   C85 3930   5.188   7.597   8.423
   10CHTO  H157 3931   5.214   7.493   8.396
   10CHTO   C83 3932   5.103   7.589   8.554
   10CHTO  H155 3933   5.014   7.529   8.534
   10CHTO   O56 3934   5.055   7.722   8.587
   10CHTO  H135 3935   4.997   7.753   8.520
   10CHTO   C81 3936   5.186   7.520   8.666
   10CHTO  H153 3937   5.199   7.415   8.638
   10CHTO   N14 3938   5.108   7.509   8.793
   10CHTO  H141 3939   5.014   7.463   8.775
   10CHTO  H142 3940   5.092   7.606   8.834
   10CHTO   C79 3941   5.332   7.584   8.677
   10CHTO  H151 3942   5.402   7.510   8.638
   10CHTO   O52 3943   5.346   7.705   8.595
   10CHTO   C86 3944   5.318   7.684   8.453
   10CHTO  H158 3945   5.306   7.788   8.415
   10CHTO   C90 3946   5.443   7.626   8.381
   10CHTO   O60 3947   5.556   7.712   8.396
   10CHTO  H138 3948   5.630   7.674   8.351
   10CHTO   O50 3949   5.380   7.615   8.809
   10CHTO   C73 3950   5.501   7.678   8.853
   10CHTO  H145 3951   5.501   7.784   8.824
   10CHTO   C74 3952   5.627   7.610   8.791
   10CHTO  H146 3953   5.618   7.616   8.682
   10CHTO   O54 3954   5.742   7.689   8.827
   10CHTO  H133 3955   5.819   7.653   8.787
   10CHTO   C75 3956   5.635   7.460   8.842
   10CHTO  H147 3957   5.545   7.407   8.806
   10CHTO   N13 3958   5.750   7.384   8.788
   10CHTO  H139 3959   5.745   7.381   8.680
   10CHTO  H140 3960   5.748   7.283   8.824
   10CHTO   C76 3961   5.631   7.460   9.001
   10CHTO  H148 3962   5.722   7.509   9.038
   10CHTO   O49 3963   5.513   7.532   9.050
   10CHTO   C77 3964   5.507   7.669   9.009
   10CHTO  H149 3965   5.595   7.724   9.044
   10CHTO   C88 3966   5.385   7.735   9.075
   10CHTO   O58 3967   5.401   7.739   9.222
   10CHTO  H136 3968   5.325   7.778   9.261
   10CHTO   O51 3969   5.614   7.313   9.059
   10CHTO   C78 3970   5.620   7.315   9.216
   10CHTO  H150 3971   5.596   7.416   9.256
   10CHTO   C80 3972   5.760   7.274   9.266
   10CHTO  H152 3973   5.783   7.172   9.228
   10CHTO   O55 3974   5.855   7.366   9.209
   10CHTO  H134 3975   5.942   7.340   9.231
   10CHTO   C84 3976   5.760   7.273   9.424
   10CHTO  H156 3977   5.729   7.372   9.458
   10CHTO   N15 3978   5.894   7.247   9.484
   10CHTO  H143 3979   5.930   7.150   9.453
   10CHTO  H144 3980   5.888   7.249   9.590
   10CHTO   C87 3981   5.654   7.169   9.468
   10CHTO  H159 3982   5.680   7.072   9.425
   10CHTO   O53 3983   5.516   7.217   9.415
   10CHTO   C82 3984   5.512   7.220   9.271
   10CHTO  H154 3985   5.524   7.119   9.231
   10CHTO   C89 3986   5.371   7.269   9.227
   10CHTO   O59 3987   5.269   7.179   9.271
   10CHTO  H137 3988   5.185   7.211   9.243
   10CHTO   O45 3989   5.644   7.153   9.631
   10CHTO   C67 3990   5.538   7.068   9.677
   10CHTO  H124 3991   5.443   7.116   9.654
   10CHTO   C65 3992   5.541   6.925   9.609
   10CHTO  H122 3993   5.645   6.906   9.582
   10CHTO   O44 3994   5.462   6.936   9.489
   10CHTO  H102 3995   5.471   6.859   9.437
   10CHTO   C63 3996   5.502   6.809   9.708
   10CHTO  H120 3997   5.587   6.789   9.773
   10CHTO   N11 3998   5.480   6.675   9.645
   10CHTO  H108 3999   5.565   6.648   9.586
   10CHTO  H109 4000   5.392   6.677   9.584
   10CHTO   C61 4001   5.386   6.859   9.800
   10CHTO  H118 4002   5.361   6.778   9.870
   10CHTO   O40 4003   5.427   6.973   9.882
   10CHTO   C68 4004   5.541   7.053   9.835
   10CHTO  H125 4005   5.635   7.003   9.867
   10CHTO   C72 4006   5.534   7.189   9.909
   10CHTO   O48 4007   5.652   7.269   9.891
   10CHTO  H105 4008   5.643   7.348   9.939
   10CHTO   O38 4009   5.270   6.898   9.724
   10CHTO   C55 4010   5.145   6.907   9.795
   10CHTO  H112 4011   5.162   6.912   9.903
   10CHTO   C56 4012   5.054   6.784   9.755
   10CHTO  H113 4013   5.056   6.777   9.645
   10CHTO   O42 4014   5.114   6.663   9.804
   10CHTO  H100 4015   5.065   6.588   9.774
   10CHTO   C57 4016   4.905   6.802   9.807
   10CHTO  H114 4017   4.907   6.790   9.915
   10CHTO   N10 4018   4.813   6.699   9.752
   10CHTO  H106 4019   4.712   6.737   9.745
   10CHTO  H107 4020   4.814   6.611   9.815
   10CHTO   C58 4021   4.855   6.945   9.774
   10CHTO  H115 4022   4.845   6.955   9.663
   10CHTO   O37 4023   4.946   7.044   9.824
   10CHTO   C59 4024   5.073   7.040   9.758
   10CHTO  H116 4025   5.059   7.048   9.650
   10CHTO   C70 4026   5.155   7.162   9.803
   10CHTO   O46 4027   5.097   7.286   9.759
   10CHTO  H103 4028   5.154   7.357   9.782
   10CHTO   O39 4029   4.712   6.972   9.845
   10CHTO   C60 4030   4.652   7.099   9.817
   10CHTO  H117 4031   4.720   7.178   9.848
   10CHTO   C62 4032   4.619   7.121   9.665
   10CHTO  H119 4033   4.717   7.127   9.612
   10CHTO   O43 4034   4.547   7.006   9.617
   10CHTO  H101 4035   4.532   7.015   9.525
   10CHTO   C66 4036   4.540   7.260   9.645
   10CHTO  H123 4037   4.603   7.341   9.681
   10CHTO   N12 4038   4.511   7.290   9.503
   10CHTO  H110 4039   4.451   7.211   9.460
   10CHTO  H111 4040   4.603   7.302   9.448
   10CHTO   C69 4041   4.412   7.259   9.733
   10CHTO  H126 4042   4.347   7.174   9.705
   10CHTO   O41 4043   4.457   7.243   9.879
   10CHTO   C64 4044   4.524   7.113   9.905
   10CHTO  H121 4045   4.455   7.030   9.881
   10CHTO   C71 4046   4.560   7.105   0.055
   10CHTO   O47 4047   4.441   7.105   0.136
   10CHTO  H104 4048   4.465   7.100   0.226
   10CHTO   O34 4049   4.329   7.390   9.721
   10CHTO   C49 4050   4.186   7.409   9.775
   10CHTO   H91 4051   4.123   7.337   9.722
   10CHTO   C47 4052   4.142   7.553   9.743
   10CHTO   H89 4053   4.036   7.559   9.776
   10CHTO   O33 4054   4.147   7.578   9.601
   10CHTO   H70 4055   4.084   7.523   9.557
   10CHTO   C45 4056   4.235   7.660   9.822
   10CHTO   H87 4057   4.322   7.685   9.759
   10CHTO    N8 4058   4.157   7.784   9.845
   10CHTO   H75 4059   4.122   7.824   9.751
   10CHTO   H76 4060   4.219   7.858   9.894
   10CHTO   C43 4061   4.299   7.591   9.954
   10CHTO   H85 4062   4.386   7.537   9.918
   10CHTO   O29 4063   4.202   7.503   0.013
   10CHTO   C50 4064   4.174   7.388   9.930
   10CHTO   H92 4065   4.243   7.308   9.959
   10CHTO   C54 4066   4.036   7.330   9.970
   10CHTO   O36 4067   4.040   7.271   0.100
   10CHTO   H72 4068   3.956   7.238   0.123
   10CHTO   O27 4069   4.353   7.683   0.050
   10CHTO   C37 4070   4.400   7.653   0.183
   10CHTO   H79 4071   4.320   7.602   0.240
   10CHTO   C38 4072   4.523   7.557   0.182
   10CHTO   H80 4073   4.597   7.597   0.110
   10CHTO   O31 4074   4.478   7.429   0.135
   10CHTO   H68 4075   4.551   7.371   0.123
   10CHTO   C39 4076   4.590   7.545   0.325
   10CHTO   H81 4077   4.518   7.493   0.389
   10CHTO    N7 4078   4.716   7.463   0.324
   10CHTO   H73 4079   4.755   7.455   0.425
   10CHTO   H74 4080   4.789   7.508   0.259
   10CHTO   C40 4081   4.612   7.689   0.386
   10CHTO   H82 4082   4.687   7.742   0.327
   10CHTO   O26 4083   4.486   7.758   0.388
   10CHTO   C41 4084   4.434   7.786   0.255
   10CHTO   H83 4085   4.510   7.841   0.196
   10CHTO   C52 4086   4.310   7.876   0.268
   10CHTO   O35 4087   4.340   8.003   0.327
   10CHTO   H71 4088   4.262   8.055   0.332
   10CHTO   O28 4089   4.657   7.683   0.523
   10CHTO   C42 4090   4.697   7.802   0.599
   10CHTO   H84 4091   4.729   7.761   0.695
   10CHTO   C44 4092   4.584   7.905   0.632
   10CHTO   H86 4093   4.546   7.947   0.539
   10CHTO   O32 4094   4.477   7.831   0.696
   10CHTO   H69 4095   4.403   7.887   0.710
   10CHTO   C48 4096   4.635   8.024   0.722
   10CHTO   H90 4097   4.661   7.984   0.820
   10CHTO    N9 4098   4.529   8.128   0.747
   10CHTO   H77 4099   4.497   8.172   0.653
   10CHTO   H78 4100   4.567   8.205   0.813
   10CHTO   C51 4101   4.765   8.085   0.658
   10CHTO   H93 4102   4.738   8.133   0.564
   10CHTO   O30 4103   4.861   7.980   0.640
   10CHTO   C46 4104   4.820   7.879   0.540
   10CHTO   H88 4105   4.792   7.928   0.447
   10CHTO   C53 4106   4.945   7.789   0.518
   10CHTO   O72 4107   4.934   7.710   0.400
   10CHTO  H199 4108   5.011   7.658   0.389
   10CHTO   O22 4109   4.829   8.180   0.747
   10CHTO   C31 4110   4.938   8.270   0.705
   10CHTO   H59 4111   4.961   8.333   0.794
   10CHTO   C29 4112   5.069   8.198   0.666
   10CHTO   H57 4113   5.045   8.131   0.581
   10CHTO   O21 4114   5.109   8.114   0.775
   10CHTO   H37 4115   5.134   8.166   0.849
   10CHTO   C27 4116   5.182   8.298   0.621
   10CHTO   H55 4117   5.213   8.358   0.708
   10CHTO    N5 4118   5.302   8.228   0.567
   10CHTO   H43 4119   5.275   8.169   0.481
   10CHTO   H44 4120   5.345   8.166   0.644
   10CHTO   C25 4121   5.123   8.397   0.515
   10CHTO   H53 4122   5.095   8.340   0.425
   10CHTO   O17 4123   5.004   8.462   0.567
   10CHTO   C32 4124   4.897   8.371   0.593
   10CHTO   H60 4125   4.873   8.315   0.502
   10CHTO   C36 4126   4.773   8.454   0.634
   10CHTO   O25 4127   4.733   8.541   0.527
   10CHTO   H40 4128   4.657   8.589   0.552
   10CHTO   O15 4129   5.226   8.510   0.475
   10CHTO   C19 4130   5.210   8.590   0.354
   10CHTO   H47 4131   5.304   8.648   0.348
   10CHTO   C20 4132   5.197   8.505   0.224
   10CHTO   H48 4133   5.113   8.433   0.231
   10CHTO   O19 4134   5.319   8.429   0.212
   10CHTO   H35 4135   5.313   8.369   0.140
   10CHTO   C21 4136   5.173   8.594   0.096
   10CHTO   H49 4137   5.263   8.651   0.076
   10CHTO    N4 4138   5.146   8.513   9.975
   10CHTO   H41 4139   5.132   8.577   9.889
   10CHTO   H42 4140   5.056   8.454   9.989
   10CHTO   C22 4141   5.060   8.696   0.126
   10CHTO   H50 4142   4.966   8.642   0.140
   10CHTO   O14 4143   5.090   8.773   0.244
   10CHTO   C23 4144   5.095   8.694   0.364
   10CHTO   H51 4145   4.997   8.645   0.375
   10CHTO   C34 4146   5.114   8.789   0.483
   10CHTO   O23 4147   5.002   8.876   0.498
   10CHTO   H38 4148   5.017   8.934   0.571
   10CHTO   O16 4149   5.046   8.795   0.021
   10CHTO   C24 4150   4.900   8.862   0.019
   10CHTO   H52 4151   4.847   8.847   0.114
   10CHTO   C26 4152   4.819   8.799   9.904
   10CHTO   H54 4153   4.879   8.807   9.810
   10CHTO   O20 4154   4.800   8.660   9.933
   10CHTO   H36 4155   4.757   8.617   9.861
   10CHTO   C30 4156   4.684   8.875   9.884
   10CHTO   H58 4157   4.618   8.857   9.970
   10CHTO    N6 4158   4.610   8.823   9.765
   10CHTO   H45 4159   4.668   8.840   9.675
   10CHTO   H46 4160   4.515   8.874   9.755
   10CHTO   C33 4161   4.708   9.029   9.876
   10CHTO   H61 4162   4.766   9.052   9.785
   10CHTO   O18 4163   4.783   9.071   9.991
   10CHTO   C28 4164   4.915   9.015   9.999
   10CHTO   H56 4165   4.971   9.033   9.908
   10CHTO   C35 4166   4.990   9.079   0.118
   10CHTO   O24 4167   5.009   9.219   0.101
   10CHTO   H39 4168   5.057   9.254   0.174
   10CHTO    O9 4169   4.585   9.102   9.863
   10CHTO   C13 4170   4.606   9.258   9.835
   10CHTO   H26 4171   4.711   9.273   9.800
   10CHTO   C11 4172   4.577   9.338   9.968
   10CHTO   H24 4173   4.663   9.325   0.035
   10CHTO    O8 4174   4.460   9.284   0.034
   10CHTO    H3 4175   4.448   9.326   0.117
   10CHTO    C9 4176   4.561   9.488   9.931
   10CHTO   H22 4177   4.652   9.514   9.875
   10CHTO    N2 4178   4.564   9.578   0.049
   10CHTO   H10 4179   4.654   9.561   0.107
   10CHTO   H11 4180   4.476   9.562   0.110
   10CHTO    C7 4181   4.435   9.506   9.835
   10CHTO   H20 4182   4.468   9.584   9.763
   10CHTO    O4 4183   4.402   9.385   9.763
   10CHTO   C14 4184   4.514   9.310   9.715
   10CHTO   H27 4185   4.574   9.376   9.650
   10CHTO   C18 4186   4.459   9.197   9.624
   10CHTO   O13 4187   4.566   9.127   9.559
   10CHTO    H7 4188   4.530   9.059   9.505
   10CHTO    O2 4189   4.302   9.558   9.914
   10CHTO    C1 4190   4.177   9.557   9.845
   10CHTO   H14 4191   4.164   9.459   9.792
   10CHTO    C2 4192   4.159   9.674   9.739
   10CHTO   H15 4193   4.189   9.766   9.791
   10CHTO    O6 4194   4.247   9.650   9.629
   10CHTO    H1 4195   4.244   9.722   9.569
   10CHTO    C3 4196   4.005   9.685   9.691
   10CHTO   H16 4197   3.981   9.597   9.630
   10CHTO    N1 4198   3.983   9.806   9.605
   10CHTO    H8 4199   4.005   9.896   9.661
   10CHTO    H9 4200   3.881   9.809   9.570
   10CHTO    C4 4201   3.909   9.681   9.815
   10CHTO   H17 4202   3.925   9.770   9.876
   10CHTO    O1 4203   3.935   9.563   9.893
   10CHTO    C5 4204   4.066   9.563   9.953
   10CHTO   H18 4205   4.080   9.656   0.010
   10CHTO   C16 4206   4.076   9.444   0.051
   10CHTO   O11 4207   3.992   9.464   0.165
   10CHTO    H5 4208   4.001   9.391   0.224
   10CHTO    O3 4209   3.770   9.673   9.776
   10CHTO    C6 4210   3.674   9.684   9.887
   10CHTO   H19 4211   3.718   9.661   9.984
   10CHTO    C8 4212   3.612   9.827   9.895
   10CHTO   H21 4213   3.568   9.851   9.798
   10CHTO    O7 4214   3.720   9.917   9.923
   10CHTO    H2 4215   3.688   0.006   9.925
   10CHTO   C12 4216   3.500   9.831   0.007
   10CHTO   H25 4217   3.553   9.819   0.104
   10CHTO    N3 4218   3.432   9.965   0.012
   10CHTO   H12 4219   3.360   9.967   0.092
   10CHTO   H13 4220   3.385   9.986   9.917
   10CHTO   C15 4221   3.399   9.712   9.990
   10CHTO   H28 4222   3.333   9.726   9.904
   10CHTO   O10 4223   3.315   9.688   0.116
   10CHTO    H4 4224   3.260   9.762   0.132
   10CHTO    O5 4225   3.469   9.586   9.977
   10CHTO   C10 4226   3.559   9.581   9.866
   10CHTO   H23 4227   3.505   9.604   9.774
   10CHTO   C17 4228   3.614   9.439   9.851
   10CHTO   O12 4229   3.508   9.345   9.835
   10CHTO    H6 4230   3.544   9.258   9.826
   11CHTO  H203 4231   8.280   3.740   6.241
   11CHTO   O82 4232   8.236   3.815   6.276
   11CHTO  C123 4233   8.122   3.848   6.195
   11CHTO  H227 4234   8.055   3.761   6.192
   11CHTO   O77 4235   8.059   3.958   6.267
   11CHTO  C118 4236   7.934   4.003   6.212
   11CHTO  H222 4237   7.861   3.921   6.213
   11CHTO  C125 4238   7.880   4.121   6.301
   11CHTO   O84 4239   7.852   4.077   6.434
   11CHTO  H205 4240   7.820   4.150   6.485
   11CHTO  C114 4241   7.954   4.051   6.067
   11CHTO  H218 4242   8.018   4.140   6.068
   11CHTO  C116 4243   8.025   3.944   5.978
   11CHTO  H220 4244   7.957   3.858   5.962
   11CHTO   O79 4245   8.049   4.002   5.848
   11CHTO  H201 4246   8.087   3.938   5.791
   11CHTO  C120 4247   8.158   3.896   6.049
   11CHTO  H224 4248   8.223   3.985   6.055
   11CHTO   N21 4249   8.229   3.793   5.969
   11CHTO  H211 4250   8.194   3.694   5.994
   11CHTO  H212 4251   8.336   3.801   5.985
   11CHTO   O75 4252   7.822   4.085   6.022
   11CHTO  C112 4253   7.817   4.208   5.918
   11CHTO  H216 4254   7.882   4.185   5.832
   11CHTO   O73 4255   7.861   4.326   5.987
   11CHTO  C113 4256   7.869   4.441   5.902
   11CHTO  H217 4257   7.934   4.417   5.814
   11CHTO  C124 4258   7.937   4.555   5.979
   11CHTO   O83 4259   8.074   4.526   6.009
   11CHTO  H204 4260   8.113   4.598   6.055
   11CHTO  C109 4261   7.728   4.481   5.853
   11CHTO  H213 4262   7.671   4.512   5.941
   11CHTO  C110 4263   7.659   4.360   5.783
   11CHTO  H214 4264   7.706   4.345   5.685
   11CHTO   O78 4265   7.521   4.393   5.759
   11CHTO  H200 4266   7.479   4.325   5.708
   11CHTO  C111 4267   7.669   4.229   5.867
   11CHTO  H215 4268   7.605   4.239   5.956
   11CHTO   N19 4269   7.622   4.108   5.794
   11CHTO  H207 4270   7.628   4.021   5.857
   11CHTO  H208 4271   7.681   4.093   5.705
   11CHTO   O74 4272   7.741   4.595   5.762
   11CHTO  C115 4273   7.616   4.692   5.757
   11CHTO  H219 4274   7.543   4.668   5.835
   11CHTO   O76 4275   7.657   4.842   5.784
   11CHTO  C122 4276   7.761   4.889   5.697
   11CHTO  H226 4277   7.855   4.853   5.738
   11CHTO  C126 4278   7.768   5.046   5.706
   11CHTO   O85 4279   7.646   5.111   5.668
   11CHTO  H206 4280   7.578   5.090   5.729
   11CHTO  C121 4281   7.745   4.841   5.546
   11CHTO  H225 4282   7.768   4.926   5.479
   11CHTO   O81 4283   7.842   4.739   5.519
   11CHTO  H202 4284   7.929   4.774   5.526
   11CHTO  C119 4285   7.598   4.793   5.518
   11CHTO  H223 4286   7.538   4.881   5.541
   11CHTO  C117 4287   7.551   4.677   5.614
   11CHTO  H221 4288   7.579   4.577   5.582
   11CHTO   N20 4289   7.401   4.673   5.622
   11CHTO  H209 4290   7.359   4.658   5.523
   11CHTO  H210 4291   7.363   4.764   5.665
   11CHTO   O80 4292   7.562   4.770   5.368
   11CHTO  C103 4293   7.664   4.702   5.270
   11CHTO  H190 4294   7.764   4.745   5.282
   11CHTO  C101 4295   7.676   4.544   5.272
   11CHTO  H188 4296   7.576   4.501   5.267
   11CHTO   O68 4297   7.742   4.499   5.404
   11CHTO  H168 4298   7.742   4.405   5.409
   11CHTO   C99 4299   7.759   4.492   5.144
   11CHTO  H186 4300   7.864   4.529   5.153
   11CHTO   N17 4301   7.767   4.343   5.133
   11CHTO  H174 4302   7.669   4.301   5.119
   11CHTO  H175 4303   7.814   4.302   5.221
   11CHTO   C97 4304   7.702   4.555   5.014
   11CHTO  H184 4305   7.602   4.514   4.994
   11CHTO   O64 4306   7.700   4.698   5.028
   11CHTO  C104 4307   7.611   4.747   5.129
   11CHTO  H191 4308   7.510   4.709   5.115
   11CHTO  C108 4309   7.602   4.899   5.118
   11CHTO   O71 4310   7.542   4.936   4.994
   11CHTO  H171 4311   7.536   5.030   4.988
   11CHTO   O62 4312   7.789   4.537   4.901
   11CHTO   C91 4313   7.729   4.534   4.769
   11CHTO  H178 4314   7.662   4.449   4.767
   11CHTO   C92 4315   7.844   4.503   4.667
   11CHTO  H179 4316   7.899   4.413   4.699
   11CHTO   O66 4317   7.783   4.468   4.541
   11CHTO  H166 4318   7.848   4.438   4.481
   11CHTO   C93 4319   7.940   4.626   4.643
   11CHTO  H180 4320   7.988   4.610   4.545
   11CHTO   N16 4321   8.051   4.634   4.740
   11CHTO  H172 4322   8.013   4.646   4.840
   11CHTO  H173 4323   8.117   4.716   4.715
   11CHTO   C94 4324   7.857   4.761   4.637
   11CHTO  H181 4325   7.863   4.816   4.732
   11CHTO   O61 4326   7.718   4.735   4.614
   11CHTO   C95 4327   7.652   4.667   4.723
   11CHTO  H182 4328   7.644   4.737   4.806
   11CHTO  C106 4329   7.505   4.634   4.680
   11CHTO   O69 4330   7.431   4.755   4.656
   11CHTO  H169 4331   7.343   4.733   4.632
   11CHTO   O63 4332   7.912   4.847   4.522
   11CHTO   C96 4333   7.868   4.995   4.531
   11CHTO  H183 4334   7.884   5.028   4.633
   11CHTO   C98 4335   7.717   5.022   4.495
   11CHTO  H185 4336   7.651   4.963   4.560
   11CHTO   O67 4337   7.688   5.159   4.525
   11CHTO  H167 4338   7.596   5.176   4.513
   11CHTO  C102 4339   7.689   4.995   4.340
   11CHTO  H189 4340   7.600   5.055   4.316
   11CHTO   N18 4341   7.653   4.855   4.305
   11CHTO  H176 4342   7.563   4.827   4.357
   11CHTO  H177 4343   7.733   4.789   4.333
   11CHTO  C105 4344   7.809   5.047   4.255
   11CHTO  H192 4345   7.872   4.963   4.227
   11CHTO   O65 4346   7.893   5.141   4.325
   11CHTO  C100 4347   7.963   5.079   4.435
   11CHTO  H187 4348   8.038   5.011   4.391
   11CHTO  C107 4349   8.042   5.187   4.513
   11CHTO   O70 4350   7.957   5.283   4.576
   11CHTO  H170 4351   8.009   5.346   4.621
   11CHTO   O57 4352   7.741   5.110   4.127
   11CHTO   C85 4353   7.805   5.114   3.999
   11CHTO  H157 4354   7.853   5.214   3.991
   11CHTO   C83 4355   7.692   5.111   3.890
   11CHTO  H155 4356   7.621   5.191   3.911
   11CHTO   O56 4357   7.620   4.987   3.906
   11CHTO  H135 4358   7.576   4.985   3.989
   11CHTO   C81 4359   7.753   5.135   3.748
   11CHTO  H153 4360   7.777   5.241   3.740
   11CHTO   N14 4361   7.651   5.117   3.640
   11CHTO  H141 4362   7.565   5.177   3.661
   11CHTO  H142 4363   7.622   5.015   3.634
   11CHTO   C79 4364   7.889   5.054   3.730
   11CHTO  H151 4365   7.969   5.125   3.749
   11CHTO   O52 4366   7.902   4.946   3.829
   11CHTO   C86 4367   7.907   4.996   3.966
   11CHTO  H158 4368   7.884   4.906   4.025
   11CHTO   C90 4369   8.053   5.037   4.003
   11CHTO   O60 4370   8.141   4.924   3.993
   11CHTO  H138 4371   8.228   4.951   4.016
   11CHTO   O50 4372   7.918   5.000   3.600
   11CHTO   C73 4373   8.037   4.930   3.558
   11CHTO  H145 4374   8.037   4.828   3.599
   11CHTO   C74 4375   8.166   5.003   3.607
   11CHTO  H146 4376   8.163   5.009   3.717
   11CHTO   O54 4377   8.280   4.920   3.576
   11CHTO  H133 4378   8.359   4.960   3.608
   11CHTO   C75 4379   8.172   5.146   3.540
   11CHTO  H147 4380   8.082   5.202   3.571
   11CHTO   N13 4381   8.287   5.228   3.583
   11CHTO  H139 4382   8.284   5.243   3.690
   11CHTO  H140 4383   8.283   5.325   3.535
   11CHTO   C76 4384   8.164   5.128   3.381
   11CHTO  H148 4385   8.253   5.072   3.351
   11CHTO   O49 4386   8.045   5.052   3.344
   11CHTO   C77 4387   8.039   4.921   3.403
   11CHTO  H149 4388   8.127   4.865   3.372
   11CHTO   C88 4389   7.919   4.843   3.348
   11CHTO   O58 4390   7.934   4.819   3.203
   11CHTO  H136 4391   7.860   4.770   3.172
   11CHTO   O51 4392   8.151   5.266   3.309
   11CHTO   C78 4393   8.166   5.257   3.155
   11CHTO  H150 4394   8.121   5.163   3.116
   11CHTO   C80 4395   8.315   5.262   3.112
   11CHTO  H152 4396   8.364   5.347   3.165
   11CHTO   O55 4397   8.378   5.140   3.157
   11CHTO  H134 4398   8.470   5.144   3.142
   11CHTO   C84 4399   8.331   5.280   2.956
   11CHTO  H156 4400   8.294   5.189   2.908
   11CHTO   N15 4401   8.474   5.297   2.914
   11CHTO  H143 4402   8.515   5.385   2.959
   11CHTO  H144 4403   8.480   5.305   2.808
   11CHTO   C87 4404   8.243   5.399   2.910
   11CHTO  H159 4405   8.279   5.491   2.955
   11CHTO   O53 4406   8.103   5.370   2.951
   11CHTO   C82 4407   8.088   5.375   3.093
   11CHTO  H154 4408   8.123   5.470   3.133
   11CHTO   C89 4409   7.937   5.366   3.125
   11CHTO   O59 4410   7.866   5.478   3.071
   11CHTO  H137 4411   7.775   5.469   3.091
   11CHTO   O45 4412   8.245   5.415   2.751
   11CHTO   C67 4413   8.139   5.499   2.700
   11CHTO  H124 4414   8.045   5.470   2.746
   11CHTO   C65 4415   8.166   5.650   2.732
   11CHTO  H122 4416   8.274   5.662   2.737
   11CHTO   O44 4417   8.110   5.674   2.863
   11CHTO  H102 4418   8.134   5.759   2.893
   11CHTO   C63 4419   8.119   5.746   2.616
   11CHTO  H120 4420   8.195   5.744   2.537
   11CHTO   N11 4421   8.114   5.892   2.649
   11CHTO  H108 4422   8.208   5.923   2.690
   11CHTO  H109 4423   8.036   5.910   2.720
   11CHTO   C61 4424   7.988   5.688   2.552
   11CHTO  H118 4425   7.961   5.756   2.469
   11CHTO   O40 4426   8.011   5.557   2.493
   11CHTO   C68 4427   8.119   5.474   2.546
   11CHTO  H125 4428   8.212   5.495   2.490
   11CHTO   C72 4429   8.079   5.327   2.515
   11CHTO   O48 4430   8.173   5.229   2.559
   11CHTO  H105 4431   8.143   5.144   2.537
   11CHTO   O38 4432   7.879   5.680   2.646
   11CHTO   C55 4433   7.752   5.651   2.586
   11CHTO  H112 4434   7.766   5.601   2.489
   11CHTO   C56 4435   7.664   5.782   2.573
   11CHTO  H113 4436   7.643   5.819   2.674
   11CHTO   O42 4437   7.739   5.885   2.505
   11CHTO  H100 4438   7.689   5.964   2.503
   11CHTO   C57 4439   7.530   5.743   2.499
   11CHTO  H114 4440   7.557   5.704   2.400
   11CHTO   N10 4441   7.439   5.859   2.477
   11CHTO  H106 4442   7.336   5.827   2.474
   11CHTO  H107 4443   7.463   5.908   2.384
   11CHTO   C58 4444   7.461   5.630   2.580
   11CHTO  H115 4445   7.430   5.670   2.679
   11CHTO   O37 4446   7.550   5.518   2.599
   11CHTO   C59 4447   7.670   5.549   2.671
   11CHTO  H116 4448   7.645   5.591   2.768
   11CHTO   C70 4449   7.748   5.419   2.693
   11CHTO   O46 4450   7.679   5.327   2.778
   11CHTO  H103 4451   7.730   5.249   2.789
   11CHTO   O39 4452   7.330   5.576   2.500
   11CHTO   C60 4453   7.268   5.455   2.549
   11CHTO  H117 4454   7.335   5.371   2.528
   11CHTO   C62 4455   7.238   5.456   2.702
   11CHTO  H119 4456   7.336   5.458   2.754
   11CHTO   O43 4457   7.165   5.576   2.735
   11CHTO  H101 4458   7.150   5.580   2.828
   11CHTO   C66 4459   7.160   5.320   2.742
   11CHTO  H123 4460   7.222   5.235   2.715
   11CHTO   N12 4461   7.137   5.308   2.888
   11CHTO  H110 4462   7.078   5.391   2.924
   11CHTO  H111 4463   7.231   5.302   2.940
   11CHTO   C69 4464   7.029   5.313   2.658
   11CHTO  H126 4465   6.969   5.404   2.676
   11CHTO   O41 4466   7.071   5.307   2.511
   11CHTO   C64 4467   7.139   5.432   2.467
   11CHTO  H121 4468   7.071   5.518   2.482
   11CHTO   C71 4469   7.169   5.421   2.315
   11CHTO   O47 4470   7.047   5.419   2.240
   11CHTO  H104 4471   7.068   5.411   2.149
   11CHTO   O34 4472   6.940   5.189   2.690
   11CHTO   C49 4473   6.787   5.196   2.650
   11CHTO   H91 4474   6.742   5.278   2.705
   11CHTO   C47 4475   6.721   5.062   2.691
   11CHTO   H89 4476   6.613   5.077   2.670
   11CHTO   O33 4477   6.737   5.039   2.832
   11CHTO   H70 4478   6.691   5.104   2.881
   11CHTO   C45 4479   6.782   4.939   2.605
   11CHTO   H87 4480   6.865   4.894   2.662
   11CHTO    N8 4481   6.676   4.836   2.588
   11CHTO   H75 4482   6.639   4.804   2.684
   11CHTO   H76 4483   6.716   4.751   2.534
   11CHTO   C43 4484   6.850   4.993   2.469
   11CHTO   H85 4485   6.948   5.030   2.499
   11CHTO   O29 4486   6.768   5.097   2.413
   11CHTO   C50 4487   6.762   5.215   2.496
   11CHTO   H92 4488   6.837   5.286   2.458
   11CHTO   C54 4489   6.629   5.289   2.470
   11CHTO   O36 4490   6.621   5.335   2.334
   11CHTO   H72 4491   6.539   5.379   2.321
   11CHTO   O27 4492   6.880   4.891   2.372
   11CHTO   C37 4493   6.930   4.904   2.238
   11CHTO   H79 4494   6.857   4.959   2.176
   11CHTO   C38 4495   7.065   4.983   2.231
   11CHTO   H80 4496   7.133   4.942   2.307
   11CHTO   O31 4497   7.035   5.120   2.266
   11CHTO   H68 4498   7.115   5.169   2.273
   11CHTO   C39 4499   7.134   4.976   2.088
   11CHTO   H81 4500   7.071   5.032   2.019
   11CHTO    N7 4501   7.270   5.038   2.085
   11CHTO   H73 4502   7.311   5.033   1.985
   11CHTO   H74 4503   7.336   4.987   2.155
   11CHTO   C40 4504   7.136   4.826   2.037
   11CHTO   H82 4505   7.203   4.766   2.099
   11CHTO   O26 4506   7.001   4.778   2.042
   11CHTO   C41 4507   6.950   4.763   2.176
   11CHTO   H83 4508   7.022   4.706   2.237
   11CHTO   C52 4509   6.820   4.682   2.169
   11CHTO   O35 4510   6.843   4.548   2.117
   11CHTO   H71 4511   6.762   4.501   2.114
   11CHTO   O28 4512   7.176   4.812   1.899
   11CHTO   C42 4513   7.195   4.681   1.836
   11CHTO   H84 4514   7.210   4.705   1.731
   11CHTO   C44 4515   7.072   4.583   1.840
   11CHTO   H86 4516   7.048   4.562   1.944
   11CHTO   O32 4517   6.962   4.653   1.780
   11CHTO   H69 4518   6.883   4.603   1.788
   11CHTO   C48 4519   7.099   4.444   1.769
   11CHTO   H90 4520   7.104   4.462   1.662
   11CHTO    N9 4521   6.984   4.348   1.789
   11CHTO   H77 4522   6.971   4.327   1.894
   11CHTO   H78 4523   7.003   4.257   1.734
   11CHTO   C51 4524   7.236   4.385   1.817
   11CHTO   H93 4525   7.226   4.356   1.922
   11CHTO   O30 4526   7.339   4.483   1.800
   11CHTO   C46 4527   7.322   4.605   1.884
   11CHTO   H88 4528   7.311   4.576   1.989
   11CHTO   C53 4529   7.451   4.688   1.865
   11CHTO   O72 4530   7.461   4.793   1.961
   11CHTO  H199 4531   7.540   4.842   1.945
   11CHTO   O22 4532   7.275   4.272   1.736
   11CHTO   C31 4533   7.377   4.175   1.780
   11CHTO   H59 4534   7.380   4.097   1.701
   11CHTO   C29 4535   7.521   4.233   1.791
   11CHTO   H57 4536   7.518   4.315   1.864
   11CHTO   O21 4537   7.555   4.293   1.664
   11CHTO   H37 4538   7.565   4.227   1.598
   11CHTO   C27 4539   7.626   4.125   1.838
   11CHTO   H55 4540   7.636   4.049   1.759
   11CHTO    N5 4541   7.760   4.183   1.865
   11CHTO   H43 4542   7.754   4.256   1.944
   11CHTO   H44 4543   7.799   4.228   1.775
   11CHTO   C25 4544   7.570   4.052   1.965
   11CHTO   H53 4545   7.564   4.124   2.048
   11CHTO   O17 4546   7.437   4.000   1.939
   11CHTO   C32 4547   7.340   4.101   1.912
   11CHTO   H60 4548   7.338   4.174   1.994
   11CHTO   C36 4549   7.201   4.033   1.905
   11CHTO   O25 4550   7.165   3.976   2.031
   11CHTO   H40 4551   7.081   3.934   2.023
   11CHTO   O15 4552   7.660   3.930   2.009
   11CHTO   C19 4553   7.650   3.870   2.141
   11CHTO   H47 4554   7.727   3.791   2.140
   11CHTO   C20 4555   7.680   3.968   2.258
   11CHTO   H48 4556   7.611   4.054   2.258
   11CHTO   O19 4557   7.813   4.018   2.235
   11CHTO   H35 4558   7.835   4.084   2.298
   11CHTO   C21 4559   7.669   3.896   2.399
   11CHTO   H49 4560   7.746   3.819   2.405
   11CHTO    N4 4561   7.691   3.989   2.513
   11CHTO   H41 4562   7.685   3.935   2.606
   11CHTO   H42 4563   7.617   4.067   2.512
   11CHTO   C22 4564   7.531   3.824   2.405
   11CHTO   H50 4565   7.453   3.900   2.400
   11CHTO   O14 4566   7.518   3.733   2.295
   11CHTO   C23 4567   7.514   3.797   2.167
   11CHTO   H51 4568   7.429   3.867   2.168
   11CHTO   C34 4569   7.486   3.691   2.060
   11CHTO   O23 4570   7.354   3.637   2.074
   11CHTO   H38 4571   7.339   3.573   2.007
   11CHTO   O16 4572   7.517   3.745   2.525
   11CHTO   C24 4573   7.373   3.684   2.546
   11CHTO   H52 4574   7.320   3.671   2.451
   11CHTO   C26 4575   7.290   3.776   2.638
   11CHTO   H54 4576   7.350   3.797   2.730
   11CHTO   O20 4577   7.268   3.900   2.569
   11CHTO   H36 4578   7.224   3.961   2.626
   11CHTO   C30 4579   7.156   3.708   2.681
   11CHTO   H58 4580   7.090   3.698   2.594
   11CHTO    N6 4581   7.082   3.790   2.780
   11CHTO   H45 4582   7.141   3.801   2.871
   11CHTO   H46 4583   6.988   3.743   2.805
   11CHTO   C33 4584   7.183   3.563   2.732
   11CHTO   H61 4585   7.243   3.567   2.824
   11CHTO   O18 4586   7.258   3.491   2.632
   11CHTO   C28 4587   7.389   3.543   2.608
   11CHTO   H56 4588   7.445   3.552   2.701
   11CHTO   C35 4589   7.465   3.449   2.512
   11CHTO   O24 4590   7.486   3.319   2.569
   11CHTO   H39 4591   7.533   3.265   2.508
   11CHTO    O9 4592   7.063   3.493   2.767
   11CHTO   C13 4593   7.089   3.342   2.816
   11CHTO   H26 4594   7.192   3.337   2.859
   11CHTO   C11 4595   7.073   3.244   2.692
   11CHTO   H24 4596   7.166   3.247   2.633
   11CHTO    O8 4597   6.964   3.288   2.607
   11CHTO    H3 4598   6.960   3.235   2.530
   11CHTO    C9 4599   7.051   3.100   2.747
   11CHTO   H22 4600   7.134   3.082   2.817
   11CHTO    N2 4601   7.067   2.994   2.644
   11CHTO   H10 4602   7.163   3.004   2.595
   11CHTO   H11 4603   6.988   3.001   2.571
   11CHTO    C7 4604   6.915   3.096   2.828
   11CHTO   H20 4605   6.934   3.020   2.907
   11CHTO    O4 4606   6.881   3.222   2.889
   11CHTO   C14 4607   6.992   3.301   2.936
   11CHTO   H27 4608   7.049   3.240   3.009
   11CHTO   C18 4609   6.934   3.422   3.013
   11CHTO   O13 4610   7.039   3.498   3.074
   11CHTO    H7 4611   7.003   3.571   3.121
   11CHTO    O2 4612   6.788   3.046   2.737
   11CHTO    C1 4613   6.658   3.053   2.799
   11CHTO   H14 4614   6.645   3.153   2.845
   11CHTO    C2 4615   6.634   2.942   2.910
   11CHTO   H15 4616   6.668   2.847   2.867
   11CHTO    O6 4617   6.714   2.973   3.025
   11CHTO    H1 4618   6.707   2.905   3.090
   11CHTO    C3 4619   6.478   2.931   2.951
   11CHTO   H16 4620   6.451   3.021   3.010
   11CHTO    N1 4621   6.452   2.812   3.038
   11CHTO    H8 4622   6.476   2.721   2.985
   11CHTO    H9 4623   6.348   2.810   3.068
   11CHTO    C4 4624   6.387   2.935   2.823
   11CHTO   H17 4625   6.402   2.843   2.766
   11CHTO    O1 4626   6.420   3.049   2.743
   11CHTO    C5 4627   6.552   3.042   2.686
   11CHTO   H18 4628   6.565   2.947   2.635
   11CHTO   C16 4629   6.567   3.157   2.583
   11CHTO   O11 4630   6.469   3.147   2.480
   11CHTO    H5 4631   6.481   3.218   2.419
   11CHTO    O3 4632   6.248   2.947   2.858
   11CHTO    C6 4633   6.152   2.949   2.747
   11CHTO   H19 4634   6.198   2.978   2.652
   11CHTO    C8 4635   6.086   2.809   2.726
   11CHTO   H21 4636   6.047   2.775   2.822
   11CHTO    O7 4637   6.190   2.720   2.682
   11CHTO    H2 4638   6.157   2.632   2.677
   11CHTO   C12 4639   5.968   2.821   2.622
   11CHTO   H25 4640   6.013   2.851   2.525
   11CHTO    N3 4641   5.901   2.689   2.600
   11CHTO   H12 4642   5.823   2.699   2.526
   11CHTO   H13 4643   5.859   2.652   2.693
   11CHTO   C15 4644   5.870   2.934   2.669
   11CHTO   H28 4645   5.822   2.910   2.764
   11CHTO   O10 4646   5.766   2.970   2.570
   11CHTO    H4 4647   5.711   2.895   2.554
   11CHTO    O5 4648   5.941   3.059   2.680
   11CHTO   C10 4649   6.045   3.057   2.779
   11CHTO   H23 4650   6.000   3.036   2.876
   11CHTO   C17 4651   6.107   3.197   2.785
   11CHTO   O12 4652   6.011   3.293   2.829
   11CHTO    H6 4653   6.050   3.379   2.829
   12CHTO  H203 4654   8.542   9.455   7.901
   12CHTO   O82 4655   8.634   9.462   7.886
   12CHTO  C123 4656   8.706   9.383   7.982
   12CHTO  H227 4657   8.675   9.278   7.971
   12CHTO   O77 4658   8.845   9.399   7.939
   12CHTO  C118 4659   8.937   9.315   8.011
   12CHTO  H222 4660   8.907   9.210   8.001
   12CHTO  C125 4661   9.079   9.334   7.947
   12CHTO   O84 4662   9.079   9.296   7.809
   12CHTO  H205 4663   9.165   9.307   7.773
   12CHTO  C114 4664   8.938   9.355   8.160
   12CHTO  H218 4665   8.979   9.456   8.168
   12CHTO  C116 4666   8.795   9.356   8.222
   12CHTO  H220 4667   8.762   9.250   8.237
   12CHTO   O79 4668   8.803   9.414   8.354
   12CHTO  H201 4669   8.719   9.410   8.396
   12CHTO  C120 4670   8.692   9.433   8.130
   12CHTO  H224 4671   8.719   9.541   8.137
   12CHTO   N21 4672   8.553   9.420   8.182
   12CHTO  H211 4673   8.505   9.332   8.140
   12CHTO  H212 4674   8.496   9.508   8.157
   12CHTO   O75 4675   9.029   9.260   8.219
   12CHTO  C112 4676   9.097   9.301   8.361
   12CHTO  H216 4677   9.018   9.317   8.436
   12CHTO   O73 4678   9.175   9.420   8.339
   12CHTO  C113 4679   9.241   9.467   8.458
   12CHTO  H217 4680   9.165   9.483   8.538
   12CHTO  C124 4681   9.306   9.603   8.429
   12CHTO   O83 4682   9.208   9.704   8.399
   12CHTO  H204 4683   9.251   9.787   8.389
   12CHTO  C109 4684   9.346   9.363   8.505
   12CHTO  H213 4685   9.418   9.351   8.423
   12CHTO  C110 4686   9.273   9.227   8.533
   12CHTO  H214 4687   9.208   9.240   8.619
   12CHTO   O78 4688   9.371   9.128   8.568
   12CHTO  H200 4689   9.329   9.048   8.593
   12CHTO  C111 4690   9.190   9.183   8.409
   12CHTO  H215 4691   9.259   9.160   8.326
   12CHTO   N19 4692   9.110   9.060   8.432
   12CHTO  H207 4693   9.057   9.033   8.342
   12CHTO  H208 4694   9.039   9.077   8.512
   12CHTO   O74 4695   9.415   9.411   8.624
   12CHTO  C115 4696   9.565   9.355   8.639
   12CHTO  H219 4697   9.589   9.283   8.560
   12CHTO   O76 4698   9.670   9.467   8.626
   12CHTO  C122 4699   9.647   9.576   8.716
   12CHTO  H226 4700   9.572   9.640   8.670
   12CHTO  C126 4701   9.777   9.663   8.722
   12CHTO   O85 4702   9.891   9.592   8.772
   12CHTO  H206 4703   9.916   9.525   8.711
   12CHTO  C121 4704   9.602   9.533   8.862
   12CHTO  H225 4705   9.658   9.595   8.936
   12CHTO   O81 4706   9.464   9.566   8.879
   12CHTO  H202 4707   9.451   9.659   8.875
   12CHTO  C119 4708   9.634   9.382   8.889
   12CHTO  H223 4709   9.743   9.378   8.879
   12CHTO  C117 4710   9.573   9.284   8.780
   12CHTO  H221 4711   9.471   9.252   8.800
   12CHTO   N20 4712   9.653   9.157   8.774
   12CHTO  H209 4713   9.655   9.109   8.871
   12CHTO  H210 4714   9.754   9.178   8.741
   12CHTO   O80 4715   9.615   9.334   9.040
   12CHTO  C103 4716   9.486   9.376   9.123
   12CHTO  H190 4717   9.472   9.484   9.122
   12CHTO  C101 4718   9.348   9.308   9.085
   12CHTO  H188 4719   9.363   9.200   9.080
   12CHTO   O68 4720   9.302   9.357   8.947
   12CHTO  H168 4721   9.225   9.310   8.921
   12CHTO   C99 4722   9.238   9.339   9.197
   12CHTO  H186 4723   9.220   9.449   9.201
   12CHTO   N17 4724   9.104   9.275   9.172
   12CHTO  H174 4725   9.114   9.168   9.173
   12CHTO  H175 4726   9.064   9.310   9.078
   12CHTO   C97 4727   9.294   9.300   9.336
   12CHTO  H184 4728   9.309   9.191   9.338
   12CHTO   O64 4729   9.416   9.372   9.360
   12CHTO  C104 4730   9.522   9.335   9.271
   12CHTO  H191 4731   9.541   9.228   9.275
   12CHTO  C108 4732   9.652   9.402   9.319
   12CHTO   O71 4733   9.690   9.355   9.449
   12CHTO  H171 4734   9.769   9.397   9.476
   12CHTO   O62 4735   9.207   9.342   9.444
   12CHTO   C91 4736   9.197   9.250   9.554
   12CHTO  H178 4737   9.173   9.152   9.513
   12CHTO   C92 4738   9.072   9.292   9.639
   12CHTO  H179 4739   8.983   9.299   9.575
   12CHTO   O66 4740   9.044   9.186   9.732
   12CHTO  H166 4741   8.964   9.202   9.777
   12CHTO   C93 4742   9.098   9.425   9.721
   12CHTO  H180 4743   9.032   9.422   9.810
   12CHTO   N16 4744   9.058   9.548   9.648
   12CHTO  H172 4745   9.116   9.557   9.557
   12CHTO  H173 4746   9.072   9.635   9.711
   12CHTO   C94 4747   9.248   9.433   9.769
   12CHTO  H181 4748   9.310   9.491   9.701
   12CHTO   O61 4749   9.307   9.301   9.775
   12CHTO   C95 4750   9.327   9.243   9.646
   12CHTO  H182 4751   9.409   9.296   9.596
   12CHTO  C106 4752   9.376   9.095   9.664
   12CHTO   O69 4753   9.504   9.091   9.728
   12CHTO  H169 4754   9.531   9.002   9.738
   12CHTO   O63 4755   9.253   9.492   9.907
   12CHTO   C96 4756   9.394   9.548   9.944
   12CHTO  H183 4757   9.431   9.605   9.858
   12CHTO   C98 4758   9.501   9.440   9.981
   12CHTO  H185 4759   9.514   9.369   9.898
   12CHTO   O67 4760   9.628   9.506   9.995
   12CHTO  H167 4761   9.696   9.442   0.008
   12CHTO  C102 4762   9.465   9.366   0.118
   12CHTO  H189 4763   9.561   9.328   0.157
   12CHTO   N18 4764   9.377   9.248   0.106
   12CHTO  H176 4765   9.425   9.173   0.044
   12CHTO  H177 4766   9.283   9.276   0.061
   12CHTO  C105 4767   9.408   9.470   0.220
   12CHTO  H192 4768   9.299   9.462   0.222
   12CHTO   O65 4769   9.439   9.607   0.186
   12CHTO  C100 4770   9.371   9.649   0.066
   12CHTO  H187 4771   9.264   9.652   0.089
   12CHTO  C107 4772   9.412   9.793   0.029
   12CHTO   O70 4773   9.551   9.805   9.999
   12CHTO  H170 4774   9.571   9.894   9.977
   12CHTO   O57 4775   9.468   9.427   0.361
   12CHTO   C85 4776   9.421   9.486   0.483
   12CHTO  H157 4777   9.483   9.577   0.499
   12CHTO   C83 4778   9.453   9.389   0.601
   12CHTO  H155 4779   9.560   9.368   0.601
   12CHTO   O56 4780   9.386   9.263   0.576
   12CHTO  H135 4781   9.421   9.222   0.499
   12CHTO   C81 4782   9.416   9.457   0.737
   12CHTO  H153 4783   9.487   9.538   0.754
   12CHTO   N14 4784   9.442   9.367   0.853
   12CHTO  H141 4785   9.543   9.330   0.849
   12CHTO  H142 4786   9.375   9.284   0.851
   12CHTO   C79 4787   9.271   9.522   0.731
   12CHTO  H151 4788   9.285   9.630   0.726
   12CHTO   O52 4789   9.198   9.482   0.611
   12CHTO   C86 4790   9.265   9.519   0.487
   12CHTO  H158 4791   9.210   9.460   0.411
   12CHTO   C90 4792   9.238   9.668   0.454
   12CHTO   O60 4793   9.098   9.691   0.440
   12CHTO  H138 4794   9.083   9.781   0.419
   12CHTO   O50 4795   9.182   9.502   0.843
   12CHTO   C73 4796   9.045   9.547   0.853
   12CHTO  H145 4797   8.982   9.491   0.783
   12CHTO   C74 4798   9.031   9.699   0.821
   12CHTO  H146 4799   9.069   9.715   0.719
   12CHTO   O54 4800   8.890   9.730   0.816
   12CHTO  H133 4801   8.878   9.820   0.792
   12CHTO   C75 4802   9.111   9.783   0.928
   12CHTO  H147 4803   9.217   9.755   0.921
   12CHTO   N13 4804   9.106   9.929   0.906
   12CHTO  H139 4805   9.147   9.953   0.809
   12CHTO  H140 4806   9.165   9.980   0.981
   12CHTO   C76 4807   9.060   9.741   1.073
   12CHTO  H148 4808   8.956   9.771   1.083
   12CHTO   O49 4809   9.071   9.596   1.092
   12CHTO   C77 4810   8.995   9.520   0.998
   12CHTO  H149 4811   8.889   9.548   1.004
   12CHTO   C88 4812   9.002   9.373   1.038
   12CHTO   O58 4813   8.939   9.353   1.169
   12CHTO  H136 4814   8.944   9.263   1.192
   12CHTO   O51 4815   9.150   9.801   1.186
   12CHTO   C78 4816   9.100   9.757   1.329
   12CHTO  H150 4817   9.044   9.661   1.325
   12CHTO   C80 4818   9.009   9.866   1.389
   12CHTO  H152 4819   9.060   9.964   1.382
   12CHTO   O55 4820   8.891   9.869   1.306
   12CHTO  H134 4821   8.835   9.939   1.334
   12CHTO   C84 4822   8.973   9.835   1.540
   12CHTO  H156 4823   8.915   9.743   1.543
   12CHTO   N15 4824   8.889   9.943   1.603
   12CHTO  H143 4825   8.941   0.036   1.603
   12CHTO  H144 4826   8.865   9.916   1.704
   12CHTO   C87 4827   9.105   9.813   1.617
   12CHTO  H159 4828   9.166   9.903   1.613
   12CHTO   O53 4829   9.178   9.695   1.548
   12CHTO   C82 4830   9.223   9.732   1.418
   12CHTO  H154 4831   9.287   9.820   1.422
   12CHTO   C89 4832   9.309   9.617   1.360
   12CHTO   O59 4833   9.426   9.595   1.441
   12CHTO  H137 4834   9.476   9.524   1.404
   12CHTO   O45 4835   9.082   9.774   1.772
   12CHTO   C67 4836   9.197   9.713   1.834
   12CHTO  H124 4837   9.224   9.624   1.778
   12CHTO   C65 4838   9.321   9.810   1.837
   12CHTO  H122 4839   9.281   9.911   1.840
   12CHTO   O44 4840   9.392   9.790   1.714
   12CHTO  H102 4841   9.460   9.855   1.705
   12CHTO   C63 4842   9.406   9.796   1.970
   12CHTO  H120 4843   9.353   9.847   2.050
   12CHTO   N11 4844   9.538   9.866   1.971
   12CHTO  H108 4845   9.525   9.969   1.945
   12CHTO  H109 4846   9.605   9.820   1.902
   12CHTO   C61 4847   9.411   9.645   2.010
   12CHTO  H118 4848   9.465   9.639   2.106
   12CHTO   O40 4849   9.278   9.589   2.034
   12CHTO   C68 4850   9.163   9.661   1.980
   12CHTO  H125 4851   9.138   9.746   2.047
   12CHTO   C72 4852   9.042   9.564   1.983
   12CHTO   O48 4853   8.917   9.628   1.954
   12CHTO  H105 4854   8.848   9.564   1.956
   12CHTO   O38 4855   9.477   9.564   1.910
   12CHTO   C55 4856   9.526   9.437   1.957
   12CHTO  H112 4857   9.469   9.406   2.046
   12CHTO   C56 4858   9.681   9.444   1.985
   12CHTO  H113 4859   9.731   9.471   1.891
   12CHTO   O42 4860   9.709   9.550   2.078
   12CHTO  H100 4861   9.802   9.560   2.090
   12CHTO   C57 4862   9.731   9.304   2.038
   12CHTO  H114 4863   9.684   9.287   2.135
   12CHTO   N10 4864   9.878   9.298   2.058
   12CHTO  H106 4865   9.915   9.197   2.044
   12CHTO  H107 4866   9.903   9.332   2.157
   12CHTO   C58 4867   9.683   9.191   1.942
   12CHTO  H115 4868   9.741   9.198   1.846
   12CHTO   O37 4869   9.542   9.200   1.913
   12CHTO   C59 4870   9.503   9.324   1.852
   12CHTO  H116 4871   9.563   9.343   1.763
   12CHTO   C70 4872   9.356   9.315   1.809
   12CHTO   O46 4873   9.336   9.215   1.710
   12CHTO  H103 4874   9.245   9.212   1.686
   12CHTO   O39 4875   9.711   9.046   2.013
   12CHTO   C60 4876   9.669   8.928   1.942
   12CHTO  H117 4877   9.560   8.925   1.940
   12CHTO   C62 4878   9.720   8.922   1.794
   12CHTO  H119 4879   9.669   9.005   1.739
   12CHTO   O43 4880   9.862   8.945   1.792
   12CHTO  H101 4881   9.893   8.947   1.703
   12CHTO   C66 4882   9.677   8.781   1.729
   12CHTO  H123 4883   9.569   8.771   1.736
   12CHTO   N12 4884   9.709   8.772   1.584
   12CHTO  H110 4885   9.816   8.784   1.569
   12CHTO  H111 4886   9.654   8.847   1.529
   12CHTO   C69 4887   9.740   8.668   1.814
   12CHTO  H126 4888   9.851   8.680   1.818
   12CHTO   O41 4889   9.681   8.679   1.953
   12CHTO   C64 4890   9.717   8.804   2.023
   12CHTO  H121 4891   9.827   8.810   2.035
   12CHTO   C71 4892   9.653   8.801   2.163
   12CHTO   O47 4893   9.700   8.689   2.239
   12CHTO  H104 4894   9.659   8.689   2.324
   12CHTO   O34 4895   9.710   8.528   1.761
   12CHTO   C49 4896   9.769   8.397   1.815
   12CHTO   H91 4897   9.877   8.403   1.803
   12CHTO   C47 4898   9.711   8.282   1.729
   12CHTO   H89 4899   9.762   8.191   1.767
   12CHTO   O33 4900   9.743   8.299   1.591
   12CHTO   H70 4901   9.836   8.293   1.578
   12CHTO   C45 4902   9.550   8.272   1.750
   12CHTO   H87 4903   9.501   8.332   1.671
   12CHTO    N8 4904   9.511   8.130   1.732
   12CHTO   H75 4905   9.542   8.095   1.635
   12CHTO   H76 4906   9.403   8.121   1.741
   12CHTO   C43 4907   9.506   8.340   1.889
   12CHTO   H85 4908   9.501   8.447   1.868
   12CHTO   O29 4909   9.604   8.309   1.990
   12CHTO   C50 4910   9.733   8.366   1.964
   12CHTO   H92 4911   9.742   8.459   2.022
   12CHTO   C54 4912   9.839   8.275   2.031
   12CHTO   O36 4913   9.820   8.268   2.172
   12CHTO   H72 4914   9.886   8.212   2.210
   12CHTO   O27 4915   9.373   8.308   1.935
   12CHTO   C37 4916   9.324   8.337   2.067
   12CHTO   H79 4917   9.399   8.306   2.142
   12CHTO   C38 4918   9.300   8.490   2.091
   12CHTO   H80 4919   9.236   8.528   2.009
   12CHTO   O31 4920   9.428   8.556   2.083
   12CHTO   H68 4921   9.416   8.649   2.086
   12CHTO   C39 4922   9.231   8.517   2.230
   12CHTO   H81 4923   9.302   8.489   2.308
   12CHTO    N7 4924   9.198   8.662   2.252
   12CHTO   H73 4925   9.154   8.676   2.350
   12CHTO   H74 4926   9.130   8.697   2.176
   12CHTO   C40 4927   9.104   8.425   2.247
   12CHTO   H82 4928   9.026   8.454   2.177
   12CHTO   O26 4929   9.146   8.288   2.228
   12CHTO   C41 4930   9.193   8.259   2.093
   12CHTO   H83 4931   9.118   8.288   2.019
   12CHTO   C52 4932   9.215   8.106   2.083
   12CHTO   O35 4933   9.093   8.030   2.110
   12CHTO   H71 4934   9.112   7.938   2.103
   12CHTO   O28 4935   9.049   8.429   2.381
   12CHTO   C42 4936   8.921   8.367   2.416
   12CHTO   H84 4937   8.917   8.377   2.524
   12CHTO   C44 4938   8.909   8.214   2.387
   12CHTO   H86 4939   8.926   8.197   2.280
   12CHTO   O32 4940   9.015   8.150   2.461
   12CHTO   H69 4941   9.018   8.058   2.440
   12CHTO   C48 4942   8.767   8.154   2.422
   12CHTO   H90 4943   8.754   8.159   2.530
   12CHTO    N9 4944   8.756   8.009   2.384
   12CHTO   H77 4945   8.770   7.997   2.278
   12CHTO   H78 4946   8.660   7.970   2.415
   12CHTO   C51 4947   8.658   8.243   2.353
   12CHTO   H93 4948   8.672   8.237   2.245
   12CHTO   O30 4949   8.671   8.377   2.402
   12CHTO   C46 4950   8.797   8.445   2.359
   12CHTO   H88 4951   8.801   8.447   2.250
   12CHTO   C53 4952   8.784   8.589   2.414
   12CHTO   O72 4953   8.892   8.675   2.376
   12CHTO  H199 4954   8.890   8.690   2.284
   12CHTO   O22 4955   8.525   8.202   2.391
   12CHTO   C31 4956   8.405   8.239   2.313
   12CHTO   H59 4957   8.322   8.180   2.356
   12CHTO   C29 4958   8.365   8.388   2.323
   12CHTO   H57 4959   8.446   8.449   2.279
   12CHTO   O21 4960   8.356   8.425   2.462
   12CHTO   H37 4961   8.285   8.380   2.503
   12CHTO   C27 4962   8.230   8.418   2.244
   12CHTO   H55 4963   8.148   8.364   2.293
   12CHTO    N5 4964   8.195   8.562   2.240
   12CHTO   H43 4965   8.272   8.618   2.188
   12CHTO   H44 4966   8.182   8.600   2.340
   12CHTO   C25 4967   8.243   8.360   2.099
   12CHTO   H53 4968   8.320   8.417   2.044
   12CHTO   O17 4969   8.284   8.221   2.104
   12CHTO   C32 4970   8.413   8.199   2.162
   12CHTO   H60 4971   8.488   8.261   2.112
   12CHTO   C36 4972   8.448   8.050   2.141
   12CHTO   O25 4973   8.456   8.018   2.002
   12CHTO   H40 4974   8.473   7.926   1.992
   12CHTO   O15 4975   8.107   8.365   2.019
   12CHTO   C19 4976   8.099   8.327   1.879
   12CHTO   H47 4977   7.994   8.346   1.852
   12CHTO   C20 4978   8.190   8.413   1.786
   12CHTO   H48 4979   8.297   8.406   1.815
   12CHTO   O19 4980   8.149   8.550   1.804
   12CHTO   H35 4981   8.206   8.608   1.756
   12CHTO   C21 4982   8.178   8.369   1.635
   12CHTO   H49 4983   8.077   8.393   1.600
   12CHTO    N4 4984   8.272   8.441   1.545
   12CHTO   H41 4985   8.257   8.410   1.443
   12CHTO   H42 4986   8.374   8.421   1.574
   12CHTO   C22 4987   8.193   8.215   1.625
   12CHTO   H50 4988   8.296   8.188   1.651
   12CHTO   O14 4989   8.102   8.147   1.713
   12CHTO   C23 4990   8.125   8.176   1.851
   12CHTO   H51 4991   8.230   8.148   1.872
   12CHTO   C34 4992   8.035   8.086   1.937
   12CHTO   O23 4993   8.081   7.951   1.933
   12CHTO   H38 4994   8.025   7.897   1.986
   12CHTO   O16 4995   8.161   8.168   1.492
   12CHTO   C24 4996   8.213   8.024   1.460
   12CHTO   H52 4997   8.222   7.962   1.550
   12CHTO   C26 4998   8.349   8.033   1.388
   12CHTO   H54 4999   8.339   8.107   1.305
   12CHTO   O20 5000   8.447   8.084   1.480
   12CHTO   H36 5001   8.529   8.097   1.437
   12CHTO   C30 5002   8.392   7.896   1.326
   12CHTO   H58 5003   8.420   7.826   1.406
   12CHTO    N6 5004   8.513   7.913   1.240
   12CHTO   H45 5005   8.491   7.979   1.157
   12CHTO   H46 5006   8.544   7.817   1.202
   12CHTO   C33 5007   8.274   7.830   1.249
   12CHTO   H61 5008   8.250   7.891   1.159
   12CHTO   O18 5009   8.158   7.826   1.333
   12CHTO   C28 5010   8.109   7.956   1.369
   12CHTO   H56 5011   8.094   8.017   1.280
   12CHTO   C35 5012   7.974   7.940   1.441
   12CHTO   O24 5013   7.874   7.888   1.353
   12CHTO   H39 5014   7.792   7.885   1.397
   12CHTO    O9 5015   8.307   7.699   1.199
   12CHTO   C13 5016   8.196   7.642   1.098
   12CHTO   H26 5017   8.147   7.728   1.047
   12CHTO   C11 5018   8.092   7.553   1.178
   12CHTO   H24 5019   8.023   7.621   1.231
   12CHTO    O8 5020   8.159   7.471   1.276
   12CHTO    H3 5021   8.097   7.425   1.328
   12CHTO    C9 5022   8.012   7.469   1.074
   12CHTO   H22 5023   7.975   7.542   1.001
   12CHTO    N2 5024   7.889   7.408   1.129
   12CHTO   H10 5025   7.827   7.483   1.175
   12CHTO   H11 5026   7.914   7.331   1.201
   12CHTO    C7 5027   8.110   7.369   1.001
   12CHTO   H20 5028   8.071   7.367   0.897
   12CHTO    O4 5029   8.247   7.417   0.999
   12CHTO   C14 5030   8.263   7.558   0.979
   12CHTO   H27 5031   8.214   7.585   0.883
   12CHTO   C18 5032   8.414   7.586   0.962
   12CHTO   O13 5033   8.435   7.722   0.925
   12CHTO    H7 5034   8.526   7.738   0.913
   12CHTO    O2 5035   8.109   7.216   1.063
   12CHTO    C1 5036   8.206   7.126   1.006
   12CHTO   H14 5037   8.305   7.176   1.002
   12CHTO    C2 5038   8.170   7.074   0.861
   12CHTO   H15 5039   8.065   7.039   0.866
   12CHTO    O6 5040   8.179   7.184   0.768
   12CHTO    H1 5041   8.150   7.157   0.683
   12CHTO    C3 5042   8.266   6.954   0.815
   12CHTO   H16 5043   8.366   6.996   0.794
   12CHTO    N1 5044   8.218   6.889   0.689
   12CHTO    H8 5045   8.120   6.846   0.704
   12CHTO    H9 5046   8.287   6.813   0.657
   12CHTO    C4 5047   8.287   6.850   0.931
   12CHTO   H17 5048   8.194   6.795   0.946
   12CHTO    O1 5049   8.326   6.917   1.052
   12CHTO    C5 5050   8.223   7.004   1.102
   12CHTO   H18 5051   8.128   6.951   1.107
   12CHTO   C16 5052   8.263   7.049   1.244
   12CHTO   O11 5053   8.281   6.936   1.331
   12CHTO    H5 5054   8.306   6.966   1.416
   12CHTO    O3 5055   8.394   6.758   0.899
   12CHTO    C6 5056   8.427   6.654   0.997
   12CHTO   H19 5057   8.406   6.685   1.100
   12CHTO    C8 5058   8.348   6.522   0.970
   12CHTO   H21 5059   8.361   6.495   0.865
   12CHTO    O7 5060   8.209   6.550   0.997
   12CHTO    H2 5061   8.156   6.476   0.974
   12CHTO   C12 5062   8.403   6.405   1.061
   12CHTO   H25 5063   8.382   6.434   1.166
   12CHTO    N3 5064   8.331   6.276   1.037
   12CHTO   H12 5065   8.370   6.199   1.103
   12CHTO   H13 5066   8.342   6.246   0.934
   12CHTO   C15 5067   8.559   6.395   1.042
   12CHTO   H28 5068   8.585   6.366   0.940
   12CHTO   O10 5069   8.627   6.300   1.140
   12CHTO    H4 5070   8.598   6.212   1.124
   12CHTO    O5 5071   8.620   6.521   1.075
   12CHTO   C10 5072   8.580   6.629   0.989
   12CHTO   H23 5073   8.608   6.604   0.887
   12CHTO   C17 5074   8.659   6.754   1.030
   12CHTO   O12 5075   8.800   6.737   1.010
   12CHTO    H6 5076   8.845   6.815   1.036
   13CHTO  H203 5077   5.567   5.315   3.053
   13CHTO   O82 5078   5.545   5.374   2.983
   13CHTO  C123 5079   5.516   5.504   3.037
   13CHTO  H227 5080   5.604   5.540   3.093
   13CHTO   O77 5081   5.494   5.585   2.918
   13CHTO  C118 5082   5.480   5.725   2.947
   13CHTO  H222 5083   5.569   5.761   3.002
   13CHTO  C125 5084   5.471   5.802   2.810
   13CHTO   O84 5085   5.593   5.787   2.737
   13CHTO  H205 5086   5.588   5.837   2.657
   13CHTO  C114 5087   5.354   5.750   3.032
   13CHTO  H218 5088   5.266   5.725   2.973
   13CHTO  C116 5089   5.352   5.660   3.160
   13CHTO  H220 5090   5.426   5.700   3.234
   13CHTO   O79 5091   5.223   5.671   3.223
   13CHTO  H201 5092   5.221   5.622   3.303
   13CHTO  C120 5093   5.386   5.509   3.126
   13CHTO  H224 5094   5.300   5.469   3.068
   13CHTO   N21 5095   5.398   5.427   3.250
   13CHTO  H211 5096   5.500   5.429   3.287
   13CHTO  H212 5097   5.368   5.326   3.230
   13CHTO   O75 5098   5.358   5.892   3.057
   13CHTO  C112 5099   5.234   5.956   3.139
   13CHTO  H216 5100   5.232   5.914   3.241
   13CHTO   O73 5101   5.113   5.926   3.067
   13CHTO  C113 5102   4.995   5.972   3.135
   13CHTO  H217 5103   4.994   5.931   3.238
   13CHTO  C124 5104   4.872   5.915   3.063
   13CHTO   O83 5105   4.867   5.772   3.069
   13CHTO  H204 5106   4.790   5.741   3.024
   13CHTO  C109 5107   4.994   6.127   3.141
   13CHTO  H213 5108   4.994   6.163   3.037
   13CHTO  C110 5109   5.124   6.175   3.215
   13CHTO  H214 5110   5.116   6.145   3.320
   13CHTO   O78 5111   5.130   6.319   3.213
   13CHTO  H200 5112   5.200   6.349   3.267
   13CHTO  C111 5113   5.251   6.113   3.150
   13CHTO  H215 5114   5.261   6.152   3.048
   13CHTO   N19 5115   5.377   6.145   3.222
   13CHTO  H207 5116   5.461   6.100   3.171
   13CHTO  H208 5117   5.372   6.109   3.323
   13CHTO   O74 5118   4.871   6.172   3.206
   13CHTO  C115 5119   4.829   6.325   3.180
   13CHTO  H219 5120   4.906   6.380   3.126
   13CHTO   O76 5121   4.699   6.337   3.090
   13CHTO  C122 5122   4.586   6.265   3.143
   13CHTO  H226 5123   4.596   6.161   3.111
   13CHTO  C126 5124   4.455   6.319   3.073
   13CHTO   O85 5125   4.434   6.459   3.093
   13CHTO  H206 5126   4.500   6.508   3.048
   13CHTO  C121 5127   4.574   6.270   3.301
   13CHTO  H225 5128   4.467   6.280   3.328
   13CHTO   O81 5129   4.618   6.144   3.355
   13CHTO  H202 5130   4.562   6.075   3.325
   13CHTO  C119 5131   4.653   6.392   3.359
   13CHTO  H223 5132   4.608   6.478   3.308
   13CHTO  C117 5133   4.806   6.390   3.323
   13CHTO  H221 5134   4.868   6.329   3.389
   13CHTO   N20 5135   4.866   6.527   3.332
   13CHTO  H209 5136   4.850   6.568   3.431
   13CHTO  H210 5137   4.821   6.592   3.258
   13CHTO   O80 5138   4.620   6.426   3.511
   13CHTO  C103 5139   4.598   6.310   3.615
   13CHTO  H190 5140   4.545   6.227   3.569
   13CHTO  C101 5141   4.726   6.254   3.687
   13CHTO  H188 5142   4.783   6.337   3.728
   13CHTO   O68 5143   4.815   6.181   3.583
   13CHTO  H168 5144   4.895   6.154   3.623
   13CHTO   C99 5145   4.686   6.156   3.807
   13CHTO  H186 5146   4.643   6.063   3.764
   13CHTO   N17 5147   4.803   6.113   3.892
   13CHTO  H174 5148   4.846   6.199   3.941
   13CHTO  H175 5149   4.876   6.062   3.831
   13CHTO   C97 5150   4.574   6.218   3.895
   13CHTO  H184 5151   4.617   6.298   3.957
   13CHTO   O64 5152   4.465   6.265   3.814
   13CHTO  C104 5153   4.502   6.370   3.724
   13CHTO  H191 5154   4.552   6.453   3.774
   13CHTO  C108 5155   4.374   6.428   3.661
   13CHTO   O71 5156   4.288   6.485   3.761
   13CHTO  H171 5157   4.212   6.520   3.720
   13CHTO   O62 5158   4.509   6.118   3.977
   13CHTO   C91 5159   4.467   6.158   4.109
   13CHTO  H178 5160   4.558   6.177   4.166
   13CHTO   C92 5161   4.396   6.036   4.176
   13CHTO  H179 5162   4.461   5.947   4.169
   13CHTO   O66 5163   4.385   6.063   4.317
   13CHTO  H166 5164   4.354   5.987   4.363
   13CHTO   C93 5165   4.251   6.009   4.119
   13CHTO  H180 5166   4.194   5.958   4.198
   13CHTO   N16 5167   4.248   5.914   4.005
   13CHTO  H172 5168   4.305   5.954   3.922
   13CHTO  H173 5169   4.146   5.895   3.975
   13CHTO   C94 5170   4.179   6.145   4.083
   13CHTO  H181 5171   4.188   6.170   3.977
   13CHTO   O61 5172   4.237   6.253   4.156
   13CHTO   C95 5173   4.371   6.286   4.116
   13CHTO  H182 5174   4.366   6.335   4.019
   13CHTO  C106 5175   4.427   6.394   4.215
   13CHTO   O69 5176   4.350   6.514   4.207
   13CHTO  H169 5177   4.386   6.578   4.266
   13CHTO   O63 5178   4.033   6.135   4.122
   13CHTO   C96 5179   3.941   6.246   4.059
   13CHTO  H183 5180   3.957   6.245   3.952
   13CHTO   C98 5181   3.967   6.391   4.112
   13CHTO  H185 5182   4.071   6.421   4.093
   13CHTO   O67 5183   3.887   6.481   4.034
   13CHTO  H167 5184   3.906   6.570   4.057
   13CHTO  C102 5185   3.927   6.408   4.267
   13CHTO  H189 5186   3.889   6.511   4.278
   13CHTO   N18 5187   4.039   6.396   4.364
   13CHTO  H176 5188   4.112   6.473   4.344
   13CHTO  H177 5189   4.085   6.299   4.355
   13CHTO  C105 5190   3.810   6.310   4.302
   13CHTO  H192 5191   3.851   6.215   4.337
   13CHTO   O65 5192   3.725   6.283   4.188
   13CHTO  C100 5193   3.791   6.201   4.089
   13CHTO  H187 5194   3.793   6.098   4.130
   13CHTO  C107 5195   3.705   6.195   3.961
   13CHTO   O70 5196   3.679   6.324   3.905
   13CHTO  H170 5197   3.624   6.315   3.829
   13CHTO   O57 5198   3.735   6.380   4.415
   13CHTO   C85 5199   3.628   6.316   4.486
   13CHTO  H157 5200   3.538   6.323   4.420
   13CHTO   C83 5201   3.598   6.405   4.610
   13CHTO  H155 5202   3.577   6.507   4.575
   13CHTO   O56 5203   3.717   6.414   4.692
   13CHTO  H135 5204   3.786   6.458   4.646
   13CHTO   C81 5205   3.473   6.350   4.684
   13CHTO  H153 5206   3.388   6.361   4.617
   13CHTO   N14 5207   3.435   6.438   4.798
   13CHTO  H141 5208   3.425   6.540   4.765
   13CHTO  H142 5209   3.510   6.434   4.874
   13CHTO   C79 5210   3.489   6.195   4.716
   13CHTO  H151 5211   3.413   6.143   4.658
   13CHTO   O52 5212   3.620   6.141   4.675
   13CHTO   C86 5213   3.654   6.168   4.535
   13CHTO  H158 5214   3.763   6.144   4.531
   13CHTO   C90 5215   3.585   6.065   4.441
   13CHTO   O60 5216   3.625   5.931   4.472
   13CHTO  H138 5217   3.581   5.871   4.416
   13CHTO   O50 5218   3.468   6.153   4.853
   13CHTO   C73 5219   3.473   6.021   4.908
   13CHTO  H145 5220   3.577   5.983   4.906
   13CHTO   C74 5221   3.384   5.923   4.825
   13CHTO  H146 5222   3.419   5.924   4.721
   13CHTO   O54 5223   3.407   5.789   4.873
   13CHTO  H133 5224   3.359   5.727   4.821
   13CHTO   C75 5225   3.233   5.968   4.838
   13CHTO  H147 5226   3.225   6.071   4.798
   13CHTO   N13 5227   3.139   5.886   4.758
   13CHTO  H139 5228   3.166   5.890   4.654
   13CHTO  H140 5229   3.039   5.924   4.769
   13CHTO   C76 5230   3.195   5.974   4.993
   13CHTO  H148 5231   3.206   5.872   5.032
   13CHTO   O49 5232   3.286   6.064   5.064
   13CHTO   C77 5233   3.424   6.024   5.056
   13CHTO  H149 5234   3.436   5.924   5.099
   13CHTO   C88 5235   3.511   6.117   5.140
   13CHTO   O58 5236   3.470   6.115   5.283
   13CHTO  H136 5237   3.523   6.175   5.332
   13CHTO   O51 5238   3.049   6.031   5.013
   13CHTO   C78 5239   3.002   6.042   5.163
   13CHTO  H150 5240   3.085   6.075   5.229
   13CHTO   C80 5241   2.947   5.907   5.215
   13CHTO  H152 5242   2.873   5.868   5.141
   13CHTO   O55 5243   3.058   5.815   5.221
   13CHTO  H134 5244   3.028   5.729   5.244
   13CHTO   C84 5245   2.877   5.923   5.356
   13CHTO  H156 5246   2.954   5.953   5.428
   13CHTO   N15 5247   2.819   5.794   5.407
   13CHTO  H143 5248   2.744   5.759   5.340
   13CHTO  H144 5249   2.775   5.809   5.503
   13CHTO   C87 5250   2.771   6.036   5.348
   13CHTO  H159 5251   2.694   6.009   5.276
   13CHTO   O53 5252   2.845   6.164   5.302
   13CHTO   C82 5253   2.893   6.150   5.168
   13CHTO  H154 5254   2.810   6.125   5.101
   13CHTO   C89 5255   2.949   6.286   5.120
   13CHTO   O59 5256   2.845   6.382   5.106
   13CHTO  H137 5257   2.881   6.464   5.076
   13CHTO   O45 5258   2.698   6.064   5.493
   13CHTO   C67 5259   2.642   6.195   5.515
   13CHTO  H124 5260   2.723   6.268   5.510
   13CHTO   C65 5261   2.533   6.234   5.408
   13CHTO  H122 5262   2.490   6.141   5.372
   13CHTO   O44 5263   2.601   6.299   5.299
   13CHTO  H102 5264   2.543   6.312   5.227
   13CHTO   C63 5265   2.412   6.314   5.471
   13CHTO  H120 5266   2.348   6.243   5.524
   13CHTO   N11 5267   2.314   6.375   5.375
   13CHTO  H108 5268   2.280   6.300   5.306
   13CHTO  H109 5269   2.361   6.454   5.321
   13CHTO   C61 5270   2.467   6.413   5.580
   13CHTO  H118 5271   2.380   6.462   5.626
   13CHTO   O40 5272   2.537   6.343   5.687
   13CHTO   C68 5273   2.583   6.207   5.661
   13CHTO  H125 5274   2.496   6.138   5.674
   13CHTO   C72 5275   2.685   6.171   5.772
   13CHTO   O48 5276   2.712   6.031   5.777
   13CHTO  H105 5277   2.773   6.014   5.846
   13CHTO   O38 5278   2.558   6.511   5.525
   13CHTO   C55 5279   2.578   6.628   5.605
   13CHTO  H112 5280   2.550   6.608   5.710
   13CHTO   C56 5281   2.496   6.749   5.544
   13CHTO  H113 5282   2.525   6.758   5.438
   13CHTO   O42 5283   2.356   6.716   5.547
   13CHTO  H100 5284   2.307   6.782   5.503
   13CHTO   C57 5285   2.526   6.883   5.622
   13CHTO  H114 5286   2.484   6.873   5.722
   13CHTO   N10 5287   2.464   7.003   5.559
   13CHTO  H106 5288   2.521   7.092   5.579
   13CHTO  H107 5289   2.363   7.016   5.597
   13CHTO   C58 5290   2.680   6.902   5.636
   13CHTO  H115 5291   2.723   6.923   5.535
   13CHTO   O37 5292   2.743   6.785   5.691
   13CHTO   C59 5293   2.729   6.667   5.610
   13CHTO  H116 5294   2.767   6.685   5.510
   13CHTO   C70 5295   2.811   6.554   5.673
   13CHTO   O46 5296   2.952   6.581   5.674
   13CHTO  H103 5297   2.997   6.509   5.714
   13CHTO   O39 5298   2.712   7.028   5.739
   13CHTO   C60 5299   2.851   7.063   5.753
   13CHTO  H117 5300   2.907   6.974   5.784
   13CHTO   C62 5301   2.912   7.116   5.620
   13CHTO  H119 5302   2.902   7.034   5.546
   13CHTO   O43 5303   2.835   7.228   5.573
   13CHTO  H101 5304   2.867   7.256   5.489
   13CHTO   C66 5305   3.067   7.148   5.641
   13CHTO  H123 5306   3.116   7.059   5.679
   13CHTO   N12 5307   3.136   7.181   5.513
   13CHTO  H110 5308   3.089   7.266   5.467
   13CHTO  H111 5309   3.136   7.095   5.448
   13CHTO   C69 5310   3.083   7.258   5.748
   13CHTO  H126 5311   3.032   7.352   5.715
   13CHTO   O41 5312   3.016   7.206   5.882
   13CHTO   C64 5313   2.868   7.168   5.865
   13CHTO  H121 5314   2.809   7.259   5.838
   13CHTO   C71 5315   2.813   7.115   6.000
   13CHTO   O47 5316   2.820   7.216   6.101
   13CHTO  H104 5317   2.786   7.182   6.181
   13CHTO   O34 5318   3.235   7.292   5.775
   13CHTO   C49 5319   3.291   7.408   5.853
   13CHTO   H91 5320   3.266   7.499   5.798
   13CHTO   C47 5321   3.444   7.391   5.863
   13CHTO   H89 5322   3.480   7.486   5.911
   13CHTO   O33 5323   3.503   7.382   5.733
   13CHTO   H70 5324   3.490   7.462   5.685
   13CHTO   C45 5325   3.483   7.261   5.952
   13CHTO   H87 5326   3.501   7.177   5.884
   13CHTO    N8 5327   3.610   7.289   6.024
   13CHTO   H75 5328   3.688   7.316   5.954
   13CHTO   H76 5329   3.641   7.202   6.080
   13CHTO   C43 5330   3.359   7.215   6.044
   13CHTO   H85 5331   3.294   7.158   5.977
   13CHTO   O29 5332   3.292   7.331   6.097
   13CHTO   C50 5333   3.234   7.417   5.998
   13CHTO   H92 5334   3.126   7.396   5.993
   13CHTO   C54 5335   3.238   7.562   6.053
   13CHTO   O36 5336   3.151   7.575   6.166
   13CHTO   H72 5337   3.153   7.664   6.196
   13CHTO   O27 5338   3.393   7.122   6.148
   13CHTO   C37 5339   3.310   7.086   6.259
   13CHTO   H79 5340   3.256   7.175   6.296
   13CHTO   C38 5341   3.202   6.981   6.219
   13CHTO   H80 5342   3.252   6.897   6.168
   13CHTO   O31 5343   3.113   7.045   6.125
   13CHTO   H68 5344   3.051   6.983   6.092
   13CHTO   C39 5345   3.123   6.928   6.345
   13CHTO   H81 5346   3.065   7.011   6.385
   13CHTO    N7 5347   3.025   6.819   6.311
   13CHTO   H73 5348   2.972   6.788   6.400
   13CHTO   H74 5349   3.078   6.734   6.268
   13CHTO   C40 5350   3.225   6.884   6.458
   13CHTO   H82 5351   3.279   6.794   6.426
   13CHTO   O26 5352   3.313   6.993   6.485
   13CHTO   C41 5353   3.398   7.031   6.373
   13CHTO   H83 5354   3.453   6.943   6.336
   13CHTO   C52 5355   3.501   7.134   6.422
   13CHTO   O35 5356   3.589   7.079   6.520
   13CHTO   H71 5357   3.650   7.144   6.548
   13CHTO   O28 5358   3.160   6.855   6.583
   13CHTO   C42 5359   3.232   6.797   6.698
   13CHTO   H84 5360   3.158   6.798   6.777
   13CHTO   C44 5361   3.355   6.879   6.751
   13CHTO   H86 5362   3.429   6.887   6.671
   13CHTO   O32 5363   3.305   7.010   6.782
   13CHTO   H69 5364   3.376   7.066   6.807
   13CHTO   C48 5365   3.426   6.811   6.874
   13CHTO   H90 5366   3.358   6.812   6.959
   13CHTO    N9 5367   3.548   6.887   6.918
   13CHTO   H77 5368   3.620   6.891   6.838
   13CHTO   H78 5369   3.591   6.841   7.006
   13CHTO   C51 5370   3.458   6.661   6.838
   13CHTO   H93 5371   3.528   6.662   6.754
   13CHTO   O30 5372   3.335   6.596   6.805
   13CHTO   C46 5373   3.274   6.647   6.677
   13CHTO   H88 5374   3.347   6.640   6.596
   13CHTO   C53 5375   3.153   6.555   6.648
   13CHTO   O72 5376   3.104   6.571   6.515
   13CHTO  H199 5377   3.032   6.513   6.501
   13CHTO   O22 5378   3.515   6.589   6.950
   13CHTO   C31 5379   3.577   6.456   6.935
   13CHTO   H59 5380   3.625   6.434   7.033
   13CHTO   C29 5381   3.476   6.342   6.907
   13CHTO   H57 5382   3.425   6.366   6.813
   13CHTO   O21 5383   3.376   6.343   7.010
   13CHTO   H37 5384   3.414   6.318   7.093
   13CHTO   C27 5385   3.547   6.201   6.892
   13CHTO   H55 5386   3.590   6.173   6.989
   13CHTO    N5 5387   3.453   6.095   6.850
   13CHTO   H43 5388   3.411   6.118   6.753
   13CHTO   H44 5389   3.375   6.083   6.923
   13CHTO   C25 5390   3.666   6.214   6.791
   13CHTO   H53 5391   3.626   6.236   6.691
   13CHTO   O17 5392   3.755   6.322   6.830
   13CHTO   C32 5393   3.692   6.451   6.829
   13CHTO   H60 5394   3.651   6.470   6.730
   13CHTO   C36 5395   3.802   6.557   6.857
   13CHTO   O25 5396   3.898   6.561   6.752
   13CHTO   H40 5397   3.962   6.627   6.770
   13CHTO   O15 5398   3.751   6.079   6.784
   13CHTO   C19 5399   3.868   6.062   6.699
   13CHTO   H47 5400   3.881   5.953   6.696
   13CHTO   C20 5401   3.851   6.115   6.554
   13CHTO   H48 5402   3.824   6.222   6.552
   13CHTO   O19 5403   3.742   6.041   6.496
   13CHTO   H35 5404   3.722   6.074   6.410
   13CHTO   C21 5405   3.983   6.097   6.469
   13CHTO   H49 5406   4.001   5.991   6.454
   13CHTO    N4 5407   3.973   6.157   6.333
   13CHTO   H41 5408   4.065   6.141   6.278
   13CHTO   H42 5409   3.956   6.263   6.341
   13CHTO   C22 5410   4.103   6.153   6.551
   13CHTO   H50 5411   4.088   6.261   6.563
   13CHTO   O14 5412   4.111   6.090   6.679
   13CHTO   C23 5413   3.998   6.119   6.764
   13CHTO   H51 5414   3.993   6.228   6.776
   13CHTO   C34 5415   4.022   6.058   6.902
   13CHTO   O23 5416   4.135   6.118   6.967
   13CHTO   H38 5417   4.116   6.207   6.990
   13CHTO   O16 5418   4.229   6.125   6.488
   13CHTO   C24 5419   4.336   6.242   6.506
   13CHTO   H52 5420   4.320   6.298   6.598
   13CHTO   C26 5421   4.327   6.337   6.385
   13CHTO   H54 5422   4.329   6.276   6.292
   13CHTO   O20 5423   4.201   6.406   6.391
   13CHTO   H36 5424   4.188   6.458   6.313
   13CHTO   C30 5425   4.446   6.439   6.381
   13CHTO   H58 5426   4.432   6.514   6.461
   13CHTO    N6 5427   4.446   6.515   6.253
   13CHTO   H45 5428   4.461   6.448   6.170
   13CHTO   H46 5429   4.526   6.588   6.254
   13CHTO   C33 5430   4.582   6.369   6.410
   13CHTO   H61 5431   4.610   6.306   6.324
   13CHTO   O18 5432   4.573   6.286   6.527
   13CHTO   C28 5433   4.477   6.179   6.516
   13CHTO   H56 5434   4.496   6.120   6.426
   13CHTO   C35 5435   4.488   6.088   6.640
   13CHTO   O24 5436   4.615   6.022   6.649
   13CHTO   H39 5437   4.616   5.967   6.724
   13CHTO    O9 5438   4.688   6.466   6.422
   13CHTO   C13 5439   4.834   6.403   6.433
   13CHTO   H26 5440   4.833   6.303   6.384
   13CHTO   C11 5441   4.874   6.392   6.587
   13CHTO   H24 5442   4.822   6.305   6.629
   13CHTO    O8 5443   4.831   6.510   6.657
   13CHTO    H3 5444   4.847   6.500   6.749
   13CHTO    C9 5445   5.028   6.370   6.595
   13CHTO   H22 5446   5.050   6.286   6.528
   13CHTO    N2 5447   5.075   6.324   6.728
   13CHTO   H10 5448   5.022   6.235   6.757
   13CHTO   H11 5449   5.060   6.402   6.801
   13CHTO    C7 5450   5.100   6.500   6.539
   13CHTO   H20 5451   5.192   6.459   6.491
   13CHTO    O4 5452   5.022   6.570   6.440
   13CHTO   C14 5453   4.942   6.489   6.352
   13CHTO   H27 5454   5.010   6.420   6.298
   13CHTO   C18 5455   4.879   6.584   6.246
   13CHTO   O13 5456   4.808   6.509   6.147
   13CHTO    H7 5457   4.771   6.568   6.084
   13CHTO    O2 5458   5.144   6.608   6.658
   13CHTO    C1 5459   5.195   6.735   6.614
   13CHTO   H14 5460   5.123   6.781   6.543
   13CHTO    C2 5461   5.337   6.728   6.545
   13CHTO   H15 5462   5.400   6.668   6.612
   13CHTO    O6 5463   5.324   6.662   6.419
   13CHTO    H1 5464   5.408   6.647   6.380
   13CHTO    C3 5465   5.402   6.874   6.525
   13CHTO   H16 5466   5.343   6.929   6.450
   13CHTO    N1 5467   5.543   6.867   6.475
   13CHTO    H8 5468   5.605   6.815   6.546
   13CHTO    H9 5469   5.582   6.966   6.458
   13CHTO    C4 5470   5.388   6.957   6.658
   13CHTO   H17 5471   5.451   6.910   6.735
   13CHTO    O1 5472   5.251   6.960   6.702
   13CHTO    C5 5473   5.201   6.830   6.738
   13CHTO   H18 5474   5.267   6.785   6.811
   13CHTO   C16 5475   5.061   6.847   6.802
   13CHTO   O11 5476   5.070   6.917   6.927
   13CHTO    H5 5477   4.984   6.926   6.964
   13CHTO    O3 5478   5.427   7.094   6.638
   13CHTO    C6 5479   5.464   7.168   6.759
   13CHTO   H19 5480   5.413   7.131   6.848
   13CHTO    C8 5481   5.619   7.162   6.783
   13CHTO   H21 5482   5.669   7.194   6.691
   13CHTO    O7 5483   5.653   7.025   6.811
   13CHTO    H2 5484   5.746   7.016   6.820
   13CHTO   C12 5485   5.660   7.258   6.901
   13CHTO   H25 5486   5.617   7.214   6.993
   13CHTO    N3 5487   5.809   7.262   6.920
   13CHTO   H12 5488   5.834   7.324   7.005
   13CHTO   H13 5489   5.857   7.299   6.831
   13CHTO   C15 5490   5.598   7.401   6.880
   13CHTO   H28 5491   5.646   7.455   6.799
   13CHTO   O10 5492   5.604   7.485   7.006
   13CHTO    H4 5493   5.693   7.502   7.029
   13CHTO    O5 5494   5.456   7.393   6.857
   13CHTO   C10 5495   5.422   7.316   6.741
   13CHTO   H23 5496   5.474   7.358   6.655
   13CHTO   C17 5497   5.272   7.329   6.715
   13CHTO   O12 5498   5.239   7.461   6.670
   13CHTO    H6 5499   5.147   7.467   6.653
   14CHTO  H203 5500   0.890   5.329   4.480
   14CHTO   O82 5501   0.948   5.272   4.526
   14CHTO  C123 5502   1.067   5.249   4.449
   14CHTO  H227 5503   1.116   5.346   4.430
   14CHTO   O77 5504   1.149   5.169   4.540
   14CHTO  C118 5505   1.280   5.138   4.488
   14CHTO  H222 5506   1.332   5.231   4.461
   14CHTO  C125 5507   1.361   5.065   4.601
   14CHTO   O84 5508   1.385   5.152   4.713
   14CHTO  H205 5509   1.433   5.106   4.779
   14CHTO  C114 5510   1.266   5.049   4.364
   14CHTO  H218 5511   1.216   4.956   4.393
   14CHTO  C116 5512   1.177   5.118   4.255
   14CHTO  H220 5513   1.234   5.204   4.211
   14CHTO   O79 5514   1.156   5.024   4.148
   14CHTO  H201 5515   1.110   5.066   4.077
   14CHTO  C120 5516   1.040   5.169   4.316
   14CHTO  H224 5517   0.980   5.078   4.339
   14CHTO   N21 5518   0.962   5.248   4.217
   14CHTO  H211 5519   0.990   5.353   4.223
   14CHTO  H212 5520   0.857   5.237   4.235
   14CHTO   O75 5521   1.401   5.023   4.322
   14CHTO  C112 5522   1.424   4.885   4.235
   14CHTO  H216 5523   1.372   4.894   4.139
   14CHTO   O73 5524   1.374   4.775   4.313
   14CHTO  C113 5525   1.387   4.648   4.247
   14CHTO  H217 5526   1.339   4.654   4.146
   14CHTO  C124 5527   1.313   4.539   4.326
   14CHTO   O83 5528   1.172   4.563   4.333
   14CHTO  H204 5529   1.132   4.493   4.382
   14CHTO  C109 5530   1.537   4.613   4.230
   14CHTO  H213 5531   1.580   4.607   4.331
   14CHTO  C110 5532   1.607   4.726   4.147
   14CHTO  H214 5533   1.569   4.722   4.045
   14CHTO   O78 5534   1.749   4.698   4.142
   14CHTO  H200 5535   1.791   4.760   4.085
   14CHTO  C111 5536   1.579   4.866   4.209
   14CHTO  H215 5537   1.630   4.872   4.307
   14CHTO   N19 5538   1.632   4.977   4.127
   14CHTO  H207 5539   1.614   5.072   4.176
   14CHTO  H208 5540   1.585   4.977   4.029
   14CHTO   O74 5541   1.550   4.484   4.165
   14CHTO  C115 5542   1.681   4.404   4.200
   14CHTO  H219 5543   1.747   4.461   4.266
   14CHTO   O76 5544   1.649   4.273   4.277
   14CHTO  C122 5545   1.554   4.188   4.210
   14CHTO  H226 5546   1.455   4.223   4.238
   14CHTO  C126 5547   1.566   4.044   4.267
   14CHTO   O85 5548   1.699   3.991   4.257
   14CHTO  H206 5549   1.722   3.978   4.167
   14CHTO  C121 5550   1.567   4.187   4.051
   14CHTO  H225 5551   1.551   4.083   4.015
   14CHTO   O81 5552   1.462   4.267   3.995
   14CHTO  H202 5553   1.379   4.229   4.015
   14CHTO  C119 5554   1.710   4.233   4.007
   14CHTO  H223 5555   1.775   4.159   4.053
   14CHTO  C117 5556   1.753   4.374   4.063
   14CHTO  H221 5557   1.726   4.459   4.000
   14CHTO   N20 5558   1.903   4.385   4.075
   14CHTO  H209 5559   1.949   4.367   3.979
   14CHTO  H210 5560   1.939   4.313   4.148
   14CHTO   O80 5561   1.744   4.212   3.854
   14CHTO  C103 5562   1.635   4.243   3.744
   14CHTO  H190 5563   1.539   4.202   3.773
   14CHTO  C101 5564   1.616   4.394   3.702
   14CHTO  H188 5565   1.713   4.437   3.678
   14CHTO   O68 5566   1.555   4.474   3.821
   14CHTO  H168 5567   1.550   4.565   3.799
   14CHTO   C99 5568   1.521   4.404   3.573
   14CHTO  H186 5569   1.420   4.367   3.599
   14CHTO   N17 5570   1.504   4.544   3.521
   14CHTO  H174 5571   1.599   4.583   3.488
   14CHTO  H175 5572   1.459   4.606   3.597
   14CHTO   C97 5573   1.573   4.308   3.462
   14CHTO  H184 5574   1.669   4.347   3.423
   14CHTO   O64 5575   1.586   4.175   3.514
   14CHTO  C104 5576   1.684   4.161   3.619
   14CHTO  H191 5577   1.782   4.198   3.588
   14CHTO  C108 5578   1.702   4.012   3.651
   14CHTO   O71 5579   1.757   3.942   3.539
   14CHTO  H171 5580   1.770   3.852   3.562
   14CHTO   O62 5581   1.478   4.291   3.355
   14CHTO   C91 5582   1.532   4.272   3.223
   14CHTO  H178 5583   1.584   4.364   3.197
   14CHTO   C92 5584   1.410   4.262   3.124
   14CHTO  H179 5585   1.340   4.345   3.140
   14CHTO   O66 5586   1.460   4.280   2.990
   14CHTO  H166 5587   1.389   4.286   2.929
   14CHTO   C93 5588   1.337   4.122   3.131
   14CHTO  H180 5589   1.285   4.108   3.035
   14CHTO   N16 5590   1.231   4.116   3.234
   14CHTO  H172 5591   1.273   4.133   3.332
   14CHTO  H173 5592   1.181   4.020   3.230
   14CHTO   C94 5593   1.442   4.005   3.148
   14CHTO  H181 5594   1.448   3.970   3.252
   14CHTO   O61 5595   1.575   4.048   3.112
   14CHTO   C95 5596   1.629   4.146   3.203
   14CHTO  H182 5597   1.647   4.098   3.299
   14CHTO  C106 5598   1.769   4.190   3.150
   14CHTO   O69 5599   1.861   4.081   3.150
   14CHTO  H169 5600   1.945   4.110   3.118
   14CHTO   O63 5601   1.403   3.893   3.058
   14CHTO   C96 5602   1.455   3.758   3.104
   14CHTO  H183 5603   1.440   3.751   3.211
   14CHTO   C98 5604   1.607   3.732   3.075
   14CHTO  H185 5605   1.669   3.810   3.122
   14CHTO   O67 5606   1.645   3.609   3.140
   14CHTO  H167 5607   1.737   3.596   3.132
   14CHTO  C102 5608   1.636   3.719   2.917
   14CHTO  H189 5609   1.723   3.652   2.908
   14CHTO   N18 5610   1.676   3.845   2.849
   14CHTO  H176 5611   1.767   3.882   2.893
   14CHTO  H177 5612   1.598   3.918   2.860
   14CHTO  C105 5613   1.515   3.650   2.847
   14CHTO  H192 5614   1.448   3.727   2.808
   14CHTO   O65 5615   1.438   3.568   2.938
   14CHTO  C100 5616   1.364   3.648   3.032
   14CHTO  H187 5617   1.284   3.699   2.976
   14CHTO  C107 5618   1.293   3.556   3.135
   14CHTO   O70 5619   1.387   3.489   3.220
   14CHTO  H170 5620   1.340   3.435   3.281
   14CHTO   O57 5621   1.576   3.567   2.727
   14CHTO   C85 5622   1.492   3.498   2.634
   14CHTO  H157 5623   1.474   3.398   2.677
   14CHTO   C83 5624   1.573   3.472   2.503
   14CHTO  H155 5625   1.662   3.414   2.529
   14CHTO   O56 5626   1.620   3.599   2.453
   14CHTO  H135 5627   1.681   3.637   2.513
   14CHTO   C81 5628   1.488   3.390   2.401
   14CHTO  H153 5629   1.471   3.291   2.444
   14CHTO   N14 5630   1.564   3.359   2.277
   14CHTO  H141 5631   1.657   3.313   2.302
   14CHTO  H142 5632   1.583   3.449   2.223
   14CHTO   C79 5633   1.345   3.457   2.379
   14CHTO  H151 5634   1.271   3.387   2.419
   14CHTO   O52 5635   1.329   3.583   2.453
   14CHTO   C86 5636   1.356   3.571   2.596
   14CHTO  H158 5637   1.356   3.677   2.628
   14CHTO   C90 5638   1.236   3.505   2.669
   14CHTO   O60 5639   1.115   3.575   2.642
   14CHTO  H138 5640   1.044   3.534   2.689
   14CHTO   O50 5641   1.303   3.483   2.244
   14CHTO   C73 5642   1.185   3.539   2.185
   14CHTO  H145 5643   1.186   3.648   2.194
   14CHTO   C74 5644   1.056   3.483   2.254
   14CHTO  H146 5645   1.062   3.509   2.361
   14CHTO   O54 5646   0.942   3.555   2.202
   14CHTO  H133 5647   0.864   3.527   2.245
   14CHTO   C75 5648   1.049   3.327   2.232
   14CHTO  H147 5649   1.138   3.281   2.276
   14CHTO   N13 5650   0.934   3.262   2.299
   14CHTO  H139 5651   0.939   3.279   2.405
   14CHTO  H140 5652   0.937   3.155   2.281
   14CHTO   C76 5653   1.054   3.298   2.074
   14CHTO  H148 5654   0.965   3.342   2.029
   14CHTO   O49 5655   1.174   3.359   2.016
   14CHTO   C77 5656   1.183   3.502   2.033
   14CHTO  H149 5657   1.099   3.551   1.985
   14CHTO   C88 5658   1.310   3.553   1.963
   14CHTO   O58 5659   1.310   3.519   1.824
   14CHTO  H136 5660   1.389   3.551   1.784
   14CHTO   O51 5661   1.067   3.144   2.045
   14CHTO   C78 5662   1.073   3.110   1.892
   14CHTO  H150 5663   1.110   3.198   1.833
   14CHTO   C80 5664   0.934   3.070   1.839
   14CHTO  H152 5665   0.893   2.990   1.905
   14CHTO   O55 5666   0.849   3.185   1.850
   14CHTO  H134 5667   0.760   3.163   1.829
   14CHTO   C84 5668   0.941   3.016   1.690
   14CHTO  H156 5669   0.972   3.099   1.626
   14CHTO   N15 5670   0.808   2.969   1.639
   14CHTO  H143 5671   0.773   2.888   1.698
   14CHTO  H144 5672   0.818   2.936   1.537
   14CHTO   C87 5673   1.049   2.905   1.682
   14CHTO  H159 5674   1.019   2.820   1.743
   14CHTO   O53 5675   1.183   2.964   1.733
   14CHTO   C82 5676   1.175   2.997   1.872
   14CHTO  H154 5677   1.147   2.909   1.931
   14CHTO   C89 5678   1.316   3.041   1.921
   14CHTO   O59 5679   1.410   2.933   1.911
   14CHTO  H137 5680   1.494   2.961   1.941
   14CHTO   O45 5681   1.072   2.855   1.529
   14CHTO   C67 5682   1.191   2.778   1.508
   14CHTO  H124 5683   1.277   2.835   1.544
   14CHTO   C65 5684   1.187   2.640   1.584
   14CHTO  H122 5685   1.081   2.614   1.594
   14CHTO   O44 5686   1.243   2.664   1.715
   14CHTO  H102 5687   1.232   2.589   1.769
   14CHTO   C63 5688   1.250   2.522   1.500
   14CHTO  H120 5689   1.178   2.492   1.424
   14CHTO   N11 5690   1.270   2.392   1.573
   14CHTO  H108 5691   1.179   2.362   1.621
   14CHTO  H109 5692   1.347   2.404   1.647
   14CHTO   C61 5693   1.376   2.575   1.424
   14CHTO  H118 5694   1.415   2.492   1.364
   14CHTO   O40 5695   1.342   2.682   1.331
   14CHTO   C68 5696   1.218   2.757   1.353
   14CHTO  H125 5697   1.134   2.702   1.306
   14CHTO   C72 5698   1.233   2.890   1.276
   14CHTO   O48 5699   1.113   2.969   1.273
   14CHTO  H105 5700   1.129   3.048   1.225
   14CHTO   O38 5701   1.478   2.624   1.514
   14CHTO   C55 5702   1.608   2.641   1.453
   14CHTO  H112 5703   1.598   2.649   1.343
   14CHTO   C56 5704   1.704   2.523   1.495
   14CHTO  H113 5705   1.711   2.524   1.605
   14CHTO   O42 5706   1.643   2.398   1.458
   14CHTO  H100 5707   1.697   2.326   1.487
   14CHTO   C57 5708   1.845   2.544   1.428
   14CHTO  H114 5709   1.831   2.531   1.321
   14CHTO   N10 5710   1.945   2.442   1.471
   14CHTO  H106 5711   2.045   2.482   1.467
   14CHTO  H107 5712   1.939   2.355   1.407
   14CHTO   C58 5713   1.897   2.688   1.454
   14CHTO  H115 5714   1.930   2.696   1.560
   14CHTO   O37 5715   1.799   2.789   1.426
   14CHTO   C59 5716   1.674   2.774   1.497
   14CHTO  H116 5717   1.693   2.774   1.605
   14CHTO   C70 5718   1.585   2.895   1.464
   14CHTO   O46 5719   1.640   3.018   1.512
   14CHTO  H103 5720   1.583   3.089   1.488
   14CHTO   O39 5721   2.024   2.715   1.353
   14CHTO   C60 5722   2.082   2.846   1.354
   14CHTO  H117 5723   2.004   2.919   1.330
   14CHTO   C62 5724   2.142   2.885   1.493
   14CHTO  H119 5725   2.056   2.893   1.563
   14CHTO   O43 5726   2.230   2.780   1.537
   14CHTO  H101 5727   2.262   2.800   1.623
   14CHTO   C66 5728   2.214   3.028   1.481
   14CHTO  H123 5729   2.142   3.101   1.445
   14CHTO   N12 5730   2.262   3.078   1.612
   14CHTO  H110 5731   2.332   3.009   1.655
   14CHTO  H111 5732   2.178   3.094   1.678
   14CHTO   C69 5733   2.327   3.018   1.375
   14CHTO  H126 5734   2.398   2.937   1.402
   14CHTO   O41 5735   2.260   2.985   1.241
   14CHTO   C64 5736   2.188   2.853   1.241
   14CHTO  H121 5737   2.261   2.770   1.254
   14CHTO   C71 5738   2.120   2.836   1.103
   14CHTO   O47 5739   2.216   2.828   0.998
   14CHTO  H104 5740   2.172   2.819   0.916
   14CHTO   O34 5741   2.407   3.149   1.357
   14CHTO   C49 5742   2.545   3.159   1.286
   14CHTO   H91 5743   2.614   3.094   1.340
   14CHTO   C47 5744   2.592   3.306   1.296
   14CHTO   H89 5745   2.694   3.307   1.252
   14CHTO   O33 5746   2.602   3.347   1.434
   14CHTO   H70 5747   2.668   3.297   1.478
   14CHTO   C45 5748   2.491   3.404   1.214
   14CHTO   H87 5749   2.411   3.436   1.282
   14CHTO    N8 5750   2.567   3.524   1.171
   14CHTO   H75 5751   2.611   3.573   1.257
   14CHTO   H76 5752   2.501   3.593   1.120
   14CHTO   C43 5753   2.417   3.322   1.097
   14CHTO   H85 5754   2.332   3.274   1.145
   14CHTO   O29 5755   2.508   3.225   1.042
   14CHTO   C50 5756   2.542   3.120   1.134
   14CHTO   H92 5757   2.471   3.038   1.121
   14CHTO   C54 5758   2.676   3.059   1.086
   14CHTO   O36 5759   2.663   3.004   0.955
   14CHTO   H72 5760   2.745   2.967   0.928
   14CHTO   O27 5761   2.358   3.401   0.992
   14CHTO   C37 5762   2.309   3.348   0.867
   14CHTO   H79 5763   2.389   3.290   0.818
   14CHTO   C38 5764   2.189   3.250   0.887
   14CHTO   H80 5765   2.117   3.297   0.956
   14CHTO   O31 5766   2.240   3.131   0.949
   14CHTO   H68 5767   2.169   3.074   0.973
   14CHTO   C39 5768   2.116   3.216   0.751
   14CHTO   H81 5769   2.185   3.156   0.692
   14CHTO    N7 5770   1.992   3.133   0.770
   14CHTO   H73 5771   1.948   3.110   0.675
   14CHTO   H74 5772   1.921   3.186   0.833
   14CHTO   C40 5773   2.087   3.347   0.670
   14CHTO   H82 5774   2.014   3.409   0.723
   14CHTO   O26 5775   2.212   3.417   0.651
   14CHTO   C41 5776   2.271   3.466   0.774
   14CHTO   H83 5777   2.200   3.533   0.826
   14CHTO   C52 5778   2.396   3.550   0.736
   14CHTO   O35 5779   2.362   3.665   0.652
   14CHTO   H71 5780   2.441   3.713   0.632
   14CHTO   O28 5781   2.035   3.319   0.538
   14CHTO   C42 5782   1.990   3.422   0.444
   14CHTO   H84 5783   1.962   3.364   0.356
   14CHTO   C44 5784   2.099   3.523   0.396
   14CHTO   H86 5785   2.131   3.584   0.481
   14CHTO   O32 5786   2.211   3.446   0.349
   14CHTO   H69 5787   2.283   3.502   0.328
   14CHTO   C48 5788   2.043   3.621   0.284
   14CHTO   H90 5789   2.024   3.562   0.195
   14CHTO    N9 5790   2.145   3.725   0.244
   14CHTO   H77 5791   2.172   3.785   0.329
   14CHTO   H78 5792   2.106   3.786   0.165
   14CHTO   C51 5793   1.908   3.685   0.333
   14CHTO   H93 5794   1.931   3.752   0.417
   14CHTO   O30 5795   1.817   3.582   0.371
   14CHTO   C46 5796   1.863   3.501   0.489
   14CHTO   H88 5797   1.888   3.568   0.571
   14CHTO   C53 5798   1.744   3.411   0.527
   14CHTO   O72 5799   1.761   3.354   0.658
   14CHTO  H199 5800   1.686   3.302   0.679
   14CHTO   O22 5801   1.843   3.757   0.227
   14CHTO   C31 5802   1.736   3.856   0.251
   14CHTO   H59 5803   1.719   3.906   0.153
   14CHTO   C29 5804   1.600   3.796   0.295
   14CHTO   H57 5805   1.617   3.742   0.390
   14CHTO   O21 5806   1.560   3.697   0.198
   14CHTO   H37 5807   1.540   3.737   0.116
   14CHTO   C27 5808   1.490   3.907   0.317
   14CHTO   H55 5809   1.467   3.954   0.221
   14CHTO    N5 5810   1.363   3.853   0.374
   14CHTO   H43 5811   1.382   3.808   0.470
   14CHTO   H44 5812   1.321   3.780   0.306
   14CHTO   C25 5813   1.549   4.018   0.411
   14CHTO   H53 5814   1.572   3.972   0.509
   14CHTO   O17 5815   1.673   4.068   0.355
   14CHTO   C32 5816   1.777   3.970   0.349
   14CHTO   H60 5817   1.792   3.927   0.449
   14CHTO   C36 5818   1.907   4.041   0.307
   14CHTO   O25 5819   1.945   4.138   0.405
   14CHTO   H40 5820   2.025   4.180   0.379
   14CHTO   O15 5821   1.451   4.141   0.431
   14CHTO   C19 5822   1.475   4.235   0.541
   14CHTO   H47 5823   1.388   4.303   0.537
   14CHTO   C20 5824   1.479   4.167   0.681
   14CHTO   H48 5825   1.559   4.091   0.688
   14CHTO   O19 5826   1.353   4.100   0.697
   14CHTO   H35 5827   1.352   4.051   0.777
   14CHTO   C21 5828   1.505   4.272   0.796
   14CHTO   H49 5829   1.419   4.339   0.802
   14CHTO    N4 5830   1.518   4.208   0.930
   14CHTO   H41 5831   1.533   4.284   1.006
   14CHTO   H42 5832   1.603   4.141   0.931
   14CHTO   C22 5833   1.628   4.358   0.759
   14CHTO   H50 5834   1.717   4.294   0.758
   14CHTO   O14 5835   1.611   4.418   0.629
   14CHTO   C23 5836   1.601   4.323   0.522
   14CHTO   H51 5837   1.694   4.264   0.523
   14CHTO   C34 5838   1.597   4.399   0.389
   14CHTO   O23 5839   1.723   4.461   0.361
   14CHTO   H38 5840   1.718   4.508   0.280
   14CHTO   O16 5841   1.647   4.468   0.850
   14CHTO   C24 5842   1.787   4.539   0.838
   14CHTO   H52 5843   1.831   4.527   0.739
   14CHTO   C26 5844   1.884   4.483   0.945
   14CHTO   H54 5845   1.832   4.484   1.044
   14CHTO   O20 5846   1.913   4.346   0.911
   14CHTO   H36 5847   1.966   4.307   0.978
   14CHTO   C30 5848   2.013   4.570   0.957
   14CHTO   H58 5849   2.073   4.562   0.864
   14CHTO    N6 5850   2.102   4.523   1.067
   14CHTO   H45 5851   2.051   4.531   1.162
   14CHTO   H46 5852   2.192   4.582   1.070
   14CHTO   C33 5853   1.974   4.720   0.971
   14CHTO   H61 5854   1.916   4.735   1.064
   14CHTO   O18 5855   1.892   4.756   0.859
   14CHTO   C28 5856   1.764   4.691   0.858
   14CHTO   H56 5857   1.712   4.708   0.952
   14CHTO   C35 5858   1.680   4.750   0.743
   14CHTO   O24 5859   1.652   4.889   0.762
   14CHTO   H39 5860   1.599   4.921   0.691
   14CHTO    O9 5861   2.088   4.808   0.983
   14CHTO   C13 5862   2.047   4.965   0.985
   14CHTO   H26 5863   1.941   4.973   1.019
   14CHTO   C11 5864   2.067   5.025   0.839
   14CHTO   H24 5865   1.976   5.002   0.780
   14CHTO    O8 5866   2.180   4.964   0.774
   14CHTO    H3 5867   2.186   4.993   0.685
   14CHTO    C9 5868   2.082   5.179   0.851
   14CHTO   H22 5869   1.995   5.213   0.910
   14CHTO    N2 5870   2.068   5.252   0.722
   14CHTO   H10 5871   1.975   5.226   0.674
   14CHTO   H11 5872   2.151   5.228   0.657
   14CHTO    C7 5873   2.214   5.210   0.932
   14CHTO   H20 5874   2.192   5.307   0.982
   14CHTO    O4 5875   2.244   5.110   1.032
   14CHTO   C14 5876   2.132   5.045   1.093
   14CHTO   H27 5877   2.067   5.122   1.139
   14CHTO   C18 5878   2.185   4.956   1.208
   14CHTO   O13 5879   2.077   4.896   1.281
   14CHTO    H7 5880   2.111   4.844   1.351
   14CHTO    O2 5881   2.346   5.228   0.835
   14CHTO    C1 5882   2.474   5.235   0.902
   14CHTO   H14 5883   2.485   5.146   0.968
   14CHTO    C2 5884   2.495   5.366   0.990
   14CHTO   H15 5885   2.463   5.450   0.927
   14CHTO    O6 5886   2.409   5.358   1.106
   14CHTO    H1 5887   2.414   5.438   1.155
   14CHTO    C3 5888   2.648   5.383   1.034
   14CHTO   H16 5889   2.674   5.304   1.106
   14CHTO    N1 5890   2.671   5.515   1.102
   14CHTO    H8 5891   2.648   5.596   1.035
   14CHTO    H9 5892   2.774   5.522   1.135
   14CHTO    C4 5893   2.742   5.361   0.910
   14CHTO   H17 5894   2.722   5.440   0.837
   14CHTO    O1 5895   2.715   5.232   0.852
   14CHTO    C5 5896   2.584   5.223   0.793
   14CHTO   H18 5897   2.570   5.304   0.722
   14CHTO   C16 5898   2.575   5.088   0.718
   14CHTO   O11 5899   2.669   5.081   0.611
   14CHTO    H5 5900   2.662   4.998   0.568
   14CHTO    O3 5901   2.882   5.362   0.946
   14CHTO    C6 5902   2.976   5.363   0.833
   14CHTO   H19 5903   2.935   5.316   0.744
   14CHTO    C8 5904   3.020   5.508   0.796
   14CHTO   H21 5905   3.056   5.557   0.887
   14CHTO    O7 5906   2.903   5.577   0.747
   14CHTO    H2 5907   2.923   5.667   0.732
   14CHTO   C12 5908   3.135   5.505   0.688
   14CHTO   H25 5909   3.089   5.464   0.596
   14CHTO    N3 5910   3.184   5.643   0.654
   14CHTO   H12 5911   3.259   5.637   0.577
   14CHTO   H13 5912   3.223   5.691   0.742
   14CHTO   C15 5913   3.250   5.407   0.734
   14CHTO   H28 5914   3.306   5.447   0.819
   14CHTO   O10 5915   3.346   5.372   0.623
   14CHTO    H4 5916   3.391   5.449   0.594
   14CHTO    O5 5917   3.197   5.278   0.766
   14CHTO   C10 5918   3.101   5.280   0.874
   14CHTO   H23 5919   3.148   5.324   0.962
   14CHTO   C17 5920   3.065   5.135   0.908
   14CHTO   O12 5921   3.180   5.062   0.954
   14CHTO    H6 5922   3.155   4.974   0.974
   15CHTO  H203 5923   3.122   0.432   7.688
   15CHTO   O82 5924   3.207   0.400   7.712
   15CHTO  C123 5925   3.307   0.460   7.628
   15CHTO  H227 5926   3.302   0.569   7.640
   15CHTO   O77 5927   3.430   0.409   7.685
   15CHTO  C118 5928   3.549   0.462   7.625
   15CHTO  H222 5929   3.549   0.572   7.630
   15CHTO  C125 5930   3.673   0.407   7.705
   15CHTO   O84 5931   3.669   0.449   7.842
   15CHTO  H205 5932   3.744   0.414   7.887
   15CHTO  C114 5933   3.555   0.416   7.477
   15CHTO  H218 5934   3.559   0.307   7.476
   15CHTO  C116 5935   3.427   0.457   7.398
   15CHTO  H220 5936   3.429   0.567   7.380
   15CHTO   O79 5937   3.432   0.396   7.268
   15CHTO  H201 5938   3.360   0.425   7.215
   15CHTO  C120 5939   3.296   0.416   7.477
   15CHTO  H224 5940   3.289   0.306   7.470
   15CHTO   N21 5941   3.174   0.471   7.411
   15CHTO  H211 5942   3.152   0.569   7.448
   15CHTO  H212 5943   3.091   0.404   7.427
   15CHTO   O75 5944   3.677   0.473   7.426
   15CHTO  C112 5945   3.743   0.389   7.302
   15CHTO  H216 5946   3.679   0.399   7.213
   15CHTO   O73 5947   3.754   0.252   7.344
   15CHTO  C113 5948   3.809   0.166   7.243
   15CHTO  H217 5949   3.752   0.179   7.148
   15CHTO  C124 5950   3.791   0.020   7.287
   15CHTO   O83 5951   3.654   9.982   7.299
   15CHTO  H204 5952   3.648   9.892   7.324
   15CHTO  C109 5953   3.957   0.204   7.222
   15CHTO  H213 5954   4.007   0.194   7.320
   15CHTO  C110 5955   3.964   0.352   7.172
   15CHTO  H214 5956   3.920   0.357   7.072
   15CHTO   O78 5957   4.102   0.392   7.161
   15CHTO  H200 5958   4.108   0.478   7.123
   15CHTO  C111 5959   3.887   0.447   7.269
   15CHTO  H215 5960   3.942   0.452   7.364
   15CHTO   N19 5961   3.876   0.586   7.218
   15CHTO  H207 5962   3.825   0.648   7.291
   15CHTO  H208 5963   3.821   0.588   7.125
   15CHTO   O74 5964   4.018   0.110   7.128
   15CHTO  C115 5965   4.174   0.097   7.141
   15CHTO  H219 5966   4.215   0.169   7.212
   15CHTO   O76 5967   4.217   9.958   7.196
   15CHTO  C122 5968   4.163   9.847   7.122
   15CHTO  H226 5969   4.060   9.834   7.156
   15CHTO  C126 5970   4.238   9.716   7.165
   15CHTO   O85 5971   4.379   9.720   7.139
   15CHTO  H206 5972   4.420   9.784   7.195
   15CHTO  C121 5973   4.167   9.868   6.964
   15CHTO  H225 5974   4.205   9.774   6.917
   15CHTO   O81 5975   4.032   9.883   6.917
   15CHTO  H202 5976   3.983   9.805   6.933
   15CHTO  C119 5977   4.261   9.986   6.923
   15CHTO  H223 5978   4.359   9.952   6.957
   15CHTO  C117 5979   4.232   0.123   6.997
   15CHTO  H221 5980   4.157   0.185   6.949
   15CHTO   N20 5981   4.354   0.210   7.000
   15CHTO  H209 5982   4.389   0.228   6.899
   15CHTO  H210 5983   4.432   0.163   7.058
   15CHTO   O80 5984   4.285   0.001   6.771
   15CHTO  C103 5985   4.162   0.008   6.670
   15CHTO  H190 5986   4.102   9.918   6.676
   15CHTO  C101 5987   4.066   0.135   6.676
   15CHTO  H188 5988   4.127   0.225   6.681
   15CHTO   O68 5989   3.977   0.129   6.802
   15CHTO  H168 5990   3.929   0.208   6.811
   15CHTO   C99 5991   3.973   0.143   6.545
   15CHTO  H186 5992   3.902   0.057   6.546
   15CHTO   N17 5993   3.888   0.267   6.538
   15CHTO  H174 5994   3.952   0.355   6.531
   15CHTO  H175 5995   3.825   0.273   6.625
   15CHTO   C97 5996   4.058   0.126   6.417
   15CHTO  H184 5997   4.123   0.214   6.405
   15CHTO   O64 5998   4.134   0.004   6.426
   15CHTO  C104 5999   4.233   0.007   6.529
   15CHTO  H191 6000   4.297   0.095   6.521
   15CHTO  C108 6001   4.326   9.885   6.513
   15CHTO   O71 6002   4.399   9.893   6.390
   15CHTO  H171 6003   4.456   9.819   6.383
   15CHTO   O62 6004   3.977   0.106   6.299
   15CHTO   C91 6005   4.034   0.154   6.175
   15CHTO  H178 6006   4.055   0.260   6.188
   15CHTO   C92 6007   3.921   0.144   6.066
   15CHTO  H179 6008   3.830   0.195   6.101
   15CHTO   O66 6009   3.965   0.220   5.951
   15CHTO  H166 6010   3.896   0.226   5.888
   15CHTO   C93 6011   3.894   9.995   6.019
   15CHTO  H180 6012   3.854   0.000   5.916
   15CHTO   N16 6013   3.788   9.928   6.098
   15CHTO  H172 6014   3.818   9.922   6.202
   15CHTO  H173 6015   3.769   9.829   6.059
   15CHTO   C94 6016   4.028   9.912   6.017
   15CHTO  H181 6017   4.042   9.855   6.109
   15CHTO   O61 6018   4.142   0.000   6.006
   15CHTO   C95 6019   4.165   0.076   6.125
   15CHTO  H182 6020   4.199   0.009   6.203
   15CHTO  C106 6021   4.283   0.175   6.099
   15CHTO   O69 6022   4.404   0.103   6.073
   15CHTO  H169 6023   4.474   0.164   6.058
   15CHTO   O63 6024   4.030   9.821   5.899
   15CHTO   C96 6025   4.147   9.713   5.905
   15CHTO  H183 6026   4.151   9.673   6.007
   15CHTO   C98 6027   4.290   9.767   5.870
   15CHTO  H185 6028   4.320   9.848   5.939
   15CHTO   O67 6029   4.386   9.661   5.892
   15CHTO  H167 6030   4.473   9.693   5.881
   15CHTO  C102 6031   4.299   9.812   5.717
   15CHTO  H189 6032   4.405   9.802   5.688
   15CHTO   N18 6033   4.265   9.954   5.692
   15CHTO  H176 6034   4.334   0.018   5.746
   15CHTO  H177 6035   4.164   9.974   5.724
   15CHTO  C105 6036   4.214   9.716   5.629
   15CHTO  H192 6037   4.116   9.760   5.611
   15CHTO   O65 6038   4.192   9.587   5.691
   15CHTO  C100 6039   4.106   9.597   5.805
   15CHTO  H187 6040   4.004   9.617   5.768
   15CHTO  C107 6041   4.098   9.460   5.877
   15CHTO   O70 6042   4.225   9.414   5.923
   15CHTO  H170 6043   4.215   9.331   5.965
   15CHTO   O57 6044   4.291   9.702   5.494
   15CHTO   C85 6045   4.232   9.625   5.388
   15CHTO  H157 6046   4.245   9.518   5.416
   15CHTO   C83 6047   4.317   9.647   5.258
   15CHTO  H155 6048   4.420   9.619   5.280
   15CHTO   O56 6049   4.319   9.788   5.226
   15CHTO  H135 6050   4.362   9.836   5.294
   15CHTO   C81 6051   4.262   9.555   5.145
   15CHTO  H153 6052   4.279   9.452   5.175
   15CHTO   N14 6053   4.344   9.566   5.021
   15CHTO  H141 6054   4.448   9.549   5.044
   15CHTO  H142 6055   4.333   9.663   4.978
   15CHTO   C79 6056   4.104   9.574   5.127
   15CHTO  H151 6057   4.058   9.480   5.157
   15CHTO   O52 6058   4.050   9.678   5.215
   15CHTO   C86 6059   4.080   9.660   5.356
   15CHTO  H158 6060   4.052   9.758   5.400
   15CHTO   C90 6061   3.983   9.556   5.419
   15CHTO   O60 6062   3.848   9.602   5.412
   15CHTO  H138 6063   3.791   9.537   5.450
   15CHTO   O50 6064   4.055   9.600   4.995
   15CHTO   C73 6065   3.919   9.625   4.955
   15CHTO  H145 6066   3.885   9.722   4.995
   15CHTO   C74 6067   3.823   9.513   5.007
   15CHTO  H146 6068   3.831   9.511   5.117
   15CHTO   O54 6069   3.688   9.554   4.979
   15CHTO  H133 6070   3.627   9.491   5.013
   15CHTO   C75 6071   3.863   9.376   4.941
   15CHTO  H147 6072   3.966   9.351   4.973
   15CHTO   N13 6073   3.780   9.261   4.985
   15CHTO  H139 6074   3.787   9.249   5.092
   15CHTO  H140 6075   3.814   9.170   4.938
   15CHTO   C76 6076   3.865   9.393   4.782
   15CHTO  H148 6077   3.763   9.411   4.749
   15CHTO   O49 6078   3.951   9.505   4.743
   15CHTO   C77 6079   3.913   9.631   4.799
   15CHTO  H149 6080   3.811   9.657   4.769
   15CHTO   C88 6081   4.004   9.742   4.744
   15CHTO   O58 6082   3.990   9.753   4.598
   15CHTO  H136 6083   4.046   9.822   4.567
   15CHTO   O51 6084   3.930   9.266   4.712
   15CHTO   C78 6085   3.928   9.278   4.557
   15CHTO  H150 6086   3.917   9.384   4.526
   15CHTO   C80 6087   3.811   9.197   4.498
   15CHTO  H152 6088   3.821   9.091   4.531
   15CHTO   O55 6089   3.689   9.251   4.551
   15CHTO  H134 6090   3.616   9.200   4.524
   15CHTO   C84 6091   3.814   9.203   4.340
   15CHTO  H156 6092   3.796   9.306   4.310
   15CHTO   N15 6093   3.706   9.121   4.276
   15CHTO  H143 6094   3.717   9.018   4.303
   15CHTO  H144 6095   3.709   9.131   4.170
   15CHTO   C87 6096   3.954   9.162   4.288
   15CHTO  H159 6097   3.972   9.057   4.309
   15CHTO   O53 6098   4.061   9.250   4.359
   15CHTO   C82 6099   4.062   9.229   4.501
   15CHTO  H154 6100   4.078   9.124   4.524
   15CHTO   C89 6101   4.180   9.308   4.563
   15CHTO   O59 6102   4.306   9.258   4.514
   15CHTO  H137 6103   4.376   9.306   4.553
   15CHTO   O45 6104   3.966   9.187   4.128
   15CHTO   C67 6105   4.100   9.183   4.075
   15CHTO  H124 6106   4.159   9.260   4.124
   15CHTO   C65 6107   4.168   9.043   4.099
   15CHTO  H122 6108   4.087   8.971   4.106
   15CHTO   O44 6109   4.234   9.052   4.227
   15CHTO  H102 6110   4.264   8.967   4.253
   15CHTO   C63 6111   4.255   8.996   3.977
   15CHTO  H120 6112   4.188   8.960   3.899
   15CHTO   N11 6113   4.340   8.875   4.000
   15CHTO  H108 6114   4.281   8.795   4.039
   15CHTO  H109 6115   4.418   8.899   4.069
   15CHTO   C61 6116   4.330   9.119   3.916
   15CHTO  H118 6117   4.384   9.083   3.827
   15CHTO   O40 6118   4.238   9.223   3.870
   15CHTO   C68 6119   4.101   9.221   3.921
   15CHTO  H125 6120   4.042   9.147   3.864
   15CHTO   C72 6121   4.040   9.360   3.892
   15CHTO   O48 6122   3.899   9.367   3.917
   15CHTO  H105 6123   3.867   9.453   3.897
   15CHTO   O38 6124   4.422   9.179   4.010
   15CHTO   C55 6125   4.530   9.253   3.950
   15CHTO  H112 6126   4.507   9.277   3.845
   15CHTO   C56 6127   4.665   9.171   3.964
   15CHTO  H113 6128   4.681   9.152   4.071
   15CHTO   O42 6129   4.651   9.043   3.901
   15CHTO  H100 6130   4.727   8.991   3.915
   15CHTO   C57 6131   4.785   9.254   3.903
   15CHTO  H114 6132   4.768   9.260   3.796
   15CHTO   N10 6133   4.918   9.189   3.924
   15CHTO  H106 6134   4.997   9.263   3.928
   15CHTO  H107 6135   4.938   9.121   3.843
   15CHTO   C58 6136   4.784   9.398   3.962
   15CHTO  H115 6137   4.815   9.394   4.068
   15CHTO   O37 6138   4.655   9.461   3.952
   15CHTO   C59 6139   4.550   9.390   4.020
   15CHTO  H116 6140   4.576   9.376   4.125
   15CHTO   C70 6141   4.422   9.474   4.014
   15CHTO   O46 6142   4.434   9.596   4.089
   15CHTO  H103 6143   4.353   9.643   4.085
   15CHTO   O39 6144   4.887   9.489   3.878
   15CHTO   C60 6145   4.906   9.623   3.924
   15CHTO  H117 6146   4.810   9.675   3.924
   15CHTO   C62 6147   4.965   9.630   4.068
   15CHTO  H119 6148   4.890   9.585   4.135
   15CHTO   O43 6149   5.086   9.551   4.073
   15CHTO  H101 6150   5.119   9.550   4.161
   15CHTO   C66 6151   4.986   9.784   4.110
   15CHTO  H123 6152   4.890   9.835   4.103
   15CHTO   N12 6153   5.030   9.798   4.251
   15CHTO  H110 6154   5.123   9.746   4.266
   15CHTO  H111 6155   4.953   9.761   4.317
   15CHTO   C69 6156   5.083   9.852   4.010
   15CHTO  H126 6157   5.182   9.802   4.012
   15CHTO   O41 6158   5.022   9.841   3.867
   15CHTO   C64 6159   4.998   9.697   3.822
   15CHTO  H121 6160   5.094   9.643   3.815
   15CHTO   C71 6161   4.932   9.697   3.682
   15CHTO   O47 6162   5.018   9.758   3.586
   15CHTO  H104 6163   4.975   9.760   3.502
   15CHTO   O34 6164   5.104   0.004   4.044
   15CHTO   C49 6165   5.220   0.091   3.998
   15CHTO   H91 6166   5.311   0.047   4.039
   15CHTO   C47 6167   5.199   0.233   4.054
   15CHTO   H89 6168   5.294   0.287   4.030
   15CHTO   O33 6169   5.185   0.230   4.198
   15CHTO   H70 6170   5.263   0.199   4.237
   15CHTO   C45 6171   5.070   0.306   3.987
   15CHTO   H87 6172   4.984   0.295   4.055
   15CHTO    N8 6173   5.098   0.451   3.972
   15CHTO   H75 6174   5.124   0.494   4.068
   15CHTO   H76 6175   5.012   0.502   3.933
   15CHTO   C43 6176   5.027   0.230   3.853
   15CHTO   H85 6177   4.974   0.141   3.888
   15CHTO   O29 6178   5.144   0.195   3.776
   15CHTO   C50 6179   5.231   0.101   3.843
   15CHTO   H92 6180   5.211   0.001   3.801
   15CHTO   C54 6181   5.377   0.129   3.799
   15CHTO   O36 6182   5.395   0.106   3.659
   15CHTO   H72 6183   5.484   0.123   3.636
   15CHTO   O27 6184   4.928   0.299   3.774
   15CHTO   C37 6185   4.875   0.257   3.648
   15CHTO   H79 6186   4.957   0.240   3.576
   15CHTO   C38 6187   4.795   0.124   3.658
   15CHTO   H80 6188   4.723   0.133   3.741
   15CHTO   O31 6189   4.889   0.020   3.690
   15CHTO   H68 6190   4.844   9.940   3.710
   15CHTO   C39 6191   4.718   0.087   3.525
   15CHTO   H81 6192   4.793   0.060   3.451
   15CHTO    N7 6193   4.627   9.969   3.540
   15CHTO   H73 6194   4.580   9.946   3.446
   15CHTO   H74 6195   4.552   9.989   3.615
   15CHTO   C40 6196   4.642   0.213   3.468
   15CHTO   H82 6197   4.555   0.236   3.531
   15CHTO   O26 6198   4.734   0.323   3.461
   15CHTO   C41 6199   4.783   0.367   3.591
   15CHTO   H83 6200   4.698   0.385   3.660
   15CHTO   C52 6201   4.858   0.501   3.572
   15CHTO   O35 6202   4.773   0.603   3.507
   15CHTO   H71 6203   4.822   0.682   3.496
   15CHTO   O28 6204   4.596   0.192   3.333
   15CHTO   C42 6205   4.512   0.289   3.262
   15CHTO   H84 6206   4.508   0.249   3.160
   15CHTO   C44 6207   4.570   0.434   3.250
   15CHTO   H86 6208   4.583   0.475   3.350
   15CHTO   O32 6209   4.699   0.421   3.187
   15CHTO   H69 6210   4.742   0.505   3.185
   15CHTO   C48 6211   4.474   0.532   3.172
   15CHTO   H90 6212   4.470   0.499   3.068
   15CHTO    N9 6213   4.527   0.673   3.168
   15CHTO   H77 6214   4.537   0.711   3.269
   15CHTO   H78 6215   4.462   0.736   3.110
   15CHTO   C51 6216   4.331   0.522   3.234
   15CHTO   H93 6217   4.338   0.556   3.338
   15CHTO   O30 6218   4.286   0.386   3.226
   15CHTO   C46 6219   4.364   0.295   3.314
   15CHTO   H88 6220   4.363   0.333   3.416
   15CHTO   C53 6221   4.291   0.159   3.307
   15CHTO   O72 6222   4.334   0.070   3.410
   15CHTO  H199 6223   4.287   9.989   3.404
   15CHTO   O22 6224   4.234   0.599   3.161
   15CHTO   C31 6225   4.105   0.639   3.221
   15CHTO   H59 6226   4.060   0.713   3.150
   15CHTO   C29 6227   4.003   0.524   3.236
   15CHTO   H57 6228   4.048   0.449   3.303
   15CHTO   O21 6229   3.986   0.461   3.108
   15CHTO   H37 6230   3.944   0.519   3.048
   15CHTO   C27 6231   3.866   0.573   3.297
   15CHTO   H55 6232   3.815   0.636   3.223
   15CHTO    N5 6233   3.776   0.459   3.332
   15CHTO   H43 6234   3.822   0.396   3.407
   15CHTO   H44 6235   3.753   0.402   3.243
   15CHTO   C25 6236   3.892   0.662   3.423
   15CHTO   H53 6237   3.932   0.599   3.505
   15CHTO   O17 6238   3.990   0.766   3.395
   15CHTO   C32 6239   4.118   0.714   3.357
   15CHTO   H60 6240   4.153   0.643   3.433
   15CHTO   C36 6241   4.220   0.830   3.348
   15CHTO   O25 6242   4.238   0.894   3.474
   15CHTO   H40 6243   4.297   0.966   3.465
   15CHTO   O15 6244   3.759   0.732   3.472
   15CHTO   C19 6245   3.746   0.796   3.602
   15CHTO   H47 6246   3.639   0.822   3.608
   15CHTO   C20 6247   3.782   0.702   3.722
   15CHTO   H48 6248   3.885   0.663   3.714
   15CHTO   O19 6249   3.692   0.590   3.713
   15CHTO   H35 6250   3.715   0.525   3.777
   15CHTO   C21 6251   3.769   0.775   3.861
   15CHTO   H49 6252   3.663   0.798   3.878
   15CHTO    N4 6253   3.814   0.691   3.975
   15CHTO   H41 6254   3.800   0.745   4.068
   15CHTO   H42 6255   3.918   0.666   3.963
   15CHTO   C22 6256   3.844   0.911   3.853
   15CHTO   H50 6257   3.951   0.891   3.843
   15CHTO   O14 6258   3.798   0.989   3.742
   15CHTO   C23 6259   3.824   0.929   3.614
   15CHTO   H51 6260   3.933   0.914   3.607
   15CHTO   C34 6261   3.783   1.028   3.504
   15CHTO   O23 6262   3.863   1.147   3.508
   15CHTO   H38 6263   3.835   1.205   3.440
   15CHTO   O16 6264   3.817   0.993   3.968
   15CHTO   C24 6265   3.925   1.103   3.994
   15CHTO   H52 6266   3.985   1.122   3.905
   15CHTO   C26 6267   4.015   1.056   4.110
   15CHTO   H54 6268   3.950   1.021   4.192
   15CHTO   O20 6269   4.093   0.944   4.063
   15CHTO   H36 6270   4.143   0.908   4.133
   15CHTO   C30 6271   4.105   1.172   4.165
   15CHTO   H58 6272   4.181   1.199   4.090
   15CHTO    N6 6273   4.181   1.129   4.286
   15CHTO   H45 6274   4.112   1.102   4.365
   15CHTO   H46 6275   4.245   1.209   4.320
   15CHTO   C33 6276   4.018   1.298   4.190
   15CHTO   H61 6277   3.943   1.277   4.268
   15CHTO   O18 6278   3.949   1.332   4.068
   15CHTO   C28 6279   3.852   1.235   4.028
   15CHTO   H56 6280   3.780   1.217   4.108
   15CHTO   C35 6281   3.776   1.290   3.905
   15CHTO   O24 6282   3.701   1.408   3.936
   15CHTO   H39 6283   3.655   1.437   3.859
   15CHTO    O9 6284   4.095   1.410   4.239
   15CHTO   C13 6285   4.005   1.537   4.278
   15CHTO   H26 6286   3.910   1.500   4.324
   15CHTO   C11 6287   3.976   1.625   4.148
   15CHTO   H24 6288   3.889   1.580   4.096
   15CHTO    O8 6289   4.088   1.620   4.058
   15CHTO    H3 6290   4.067   1.663   3.977
   15CHTO    C9 6291   3.940   1.769   4.191
   15CHTO   H22 6292   3.857   1.760   4.262
   15CHTO    N2 6293   3.885   1.851   4.080
   15CHTO   H10 6294   3.800   1.801   4.036
   15CHTO   H11 6295   3.961   1.870   4.006
   15CHTO    C7 6296   4.064   1.833   4.267
   15CHTO   H20 6297   4.015   1.899   4.342
   15CHTO    O4 6298   4.146   1.735   4.334
   15CHTO   C14 6299   4.075   1.624   4.391
   15CHTO   H27 6300   3.997   1.664   4.460
   15CHTO   C18 6301   4.175   1.544   4.479
   15CHTO   O13 6302   4.108   1.438   4.548
   15CHTO    H7 6303   4.169   1.391   4.601
   15CHTO    O2 6304   4.162   1.923   4.170
   15CHTO    C1 6305   4.274   1.986   4.235
   15CHTO   H14 6306   4.328   1.910   4.296
   15CHTO    C2 6307   4.234   2.108   4.329
   15CHTO   H15 6308   4.165   2.170   4.269
   15CHTO    O6 6309   4.166   2.059   4.445
   15CHTO    H1 6310   4.134   2.130   4.497
   15CHTO    C3 6311   4.362   2.195   4.372
   15CHTO   H16 6312   4.420   2.137   4.445
   15CHTO    N1 6313   4.323   2.323   4.438
   15CHTO    H8 6314   4.266   2.385   4.369
   15CHTO    H9 6315   4.410   2.377   4.471
   15CHTO    C4 6316   4.459   2.218   4.250
   15CHTO   H17 6317   4.412   2.289   4.181
   15CHTO    O1 6318   4.488   2.095   4.183
   15CHTO    C5 6319   4.373   2.032   4.125
   15CHTO   H18 6320   4.321   2.102   4.059
   15CHTO   C16 6321   4.422   1.912   4.039
   15CHTO   O11 6322   4.504   1.956   3.930
   15CHTO    H5 6323   4.533   1.882   3.881
   15CHTO    O3 6324   4.586   2.268   4.295
   15CHTO    C6 6325   4.666   2.338   4.195
   15CHTO   H19 6326   4.635   2.317   4.093
   15CHTO    C8 6327   4.659   2.492   4.220
   15CHTO   H21 6328   4.680   2.511   4.325
   15CHTO    O7 6329   4.524   2.533   4.189
   15CHTO    H2 6330   4.512   2.623   4.211
   15CHTO   C12 6331   4.766   2.568   4.131
   15CHTO   H25 6332   4.734   2.557   4.026
   15CHTO    N3 6333   4.766   2.716   4.161
   15CHTO   H12 6334   4.837   2.766   4.097
   15CHTO   H13 6335   4.789   2.733   4.265
   15CHTO   C15 6336   4.907   2.501   4.148
   15CHTO   H28 6337   4.947   2.515   4.249
   15CHTO   O10 6338   5.008   2.547   4.046
   15CHTO    H4 6339   5.025   2.638   4.057
   15CHTO    O5 6340   4.899   2.360   4.119
   15CHTO   C10 6341   4.813   2.288   4.208
   15CHTO   H23 6342   4.846   2.304   4.311
   15CHTO   C17 6343   4.825   2.138   4.179
   15CHTO   O12 6344   4.958   2.091   4.204
   15CHTO    H6 6345   4.963   1.999   4.186
   16CHTO  H203 6346   3.659   9.424   4.178
   16CHTO   O82 6347   3.632   9.495   4.124
   16CHTO  C123 6348   3.722   9.606   4.137
   16CHTO  H227 6349   3.824   9.572   4.112
   16CHTO   O77 6350   3.675   9.700   4.037
   16CHTO  C118 6351   3.760   9.814   4.020
   16CHTO  H222 6352   3.861   9.781   3.991
   16CHTO  C125 6353   3.701   9.904   3.906
   16CHTO   O84 6354   3.702   9.834   3.781
   16CHTO  H205 6355   3.664   9.889   3.715
   16CHTO  C114 6356   3.769   9.895   4.151
   16CHTO  H218 6357   3.671   9.938   4.172
   16CHTO  C116 6358   3.806   9.806   4.274
   16CHTO  H220 6359   3.914   9.779   4.268
   16CHTO   O79 6360   3.791   9.885   4.394
   16CHTO  H201 6361   3.820   9.836   4.469
   16CHTO  C120 6362   3.717   9.675   4.279
   16CHTO  H224 6363   3.613   9.708   4.301
   16CHTO   N21 6364   3.759   9.585   4.389
   16CHTO  H211 6365   3.836   9.517   4.355
   16CHTO  H212 6366   3.674   9.529   4.425
   16CHTO   O75 6367   3.863   9.999   4.120
   16CHTO  C112 6368   3.875   0.120   4.227
   16CHTO  H216 6369   3.933   0.084   4.314
   16CHTO   O73 6370   3.742   0.160   4.264
   16CHTO  C113 6371   3.740   0.260   4.366
   16CHTO  H217 6372   3.798   0.224   4.454
   16CHTO  C124 6373   3.595   0.281   4.414
   16CHTO   O83 6374   3.541   0.164   4.476
   16CHTO  H204 6375   3.455   0.182   4.507
   16CHTO  C109 6376   3.802   0.391   4.313
   16CHTO  H213 6377   3.738   0.426   4.231
   16CHTO  C110 6378   3.947   0.364   4.261
   16CHTO  H214 6379   4.011   0.343   4.347
   16CHTO   O78 6380   3.998   0.483   4.198
   16CHTO  H200 6381   4.088   0.472   4.175
   16CHTO  C111 6382   3.951   0.243   4.163
   16CHTO  H215 6383   3.897   0.270   4.071
   16CHTO   N19 6384   4.088   0.204   4.121
   16CHTO  H207 6385   4.084   0.121   4.052
   16CHTO  H208 6386   4.147   0.176   4.208
   16CHTO   O74 6387   3.801   0.489   4.420
   16CHTO  C115 6388   3.793   0.638   4.375
   16CHTO  H219 6389   3.827   0.651   4.273
   16CHTO   O76 6390   3.645   0.692   4.377
   16CHTO  C122 6391   3.579   0.668   4.502
   16CHTO  H226 6392   3.550   0.562   4.503
   16CHTO  C126 6393   3.444   0.748   4.505
   16CHTO   O85 6394   3.466   0.889   4.502
   16CHTO  H206 6395   3.503   0.914   4.420
   16CHTO  C121 6396   3.669   0.701   4.629
   16CHTO  H225 6397   3.609   0.762   4.701
   16CHTO   O81 6398   3.699   0.578   4.696
   16CHTO  H202 6399   3.620   0.539   4.729
   16CHTO  C119 6400   3.797   0.783   4.590
   16CHTO  H223 6401   3.756   0.876   4.551
   16CHTO  C117 6402   3.884   0.718   4.475
   16CHTO  H221 6403   3.957   0.644   4.509
   16CHTO   N20 6404   3.967   0.821   4.405
   16CHTO  H209 6405   4.031   0.871   4.475
   16CHTO  H210 6406   3.903   0.893   4.355
   16CHTO   O80 6407   3.882   0.835   4.710
   16CHTO  C103 6408   3.924   0.737   4.830
   16CHTO  H190 6409   3.835   0.696   4.877
   16CHTO  C101 6410   4.027   0.620   4.800
   16CHTO  H188 6411   4.114   0.661   4.748
   16CHTO   O68 6412   3.963   0.514   4.711
   16CHTO  H168 6413   4.027   0.450   4.687
   16CHTO   C99 6414   4.076   0.554   4.938
   16CHTO  H186 6415   3.989   0.509   4.990
   16CHTO   N17 6416   4.178   0.445   4.922
   16CHTO  H174 6417   4.268   0.484   4.877
   16CHTO  H175 6418   4.136   0.364   4.863
   16CHTO   C97 6419   4.128   0.666   5.032
   16CHTO  H184 6420   4.219   0.711   4.988
   16CHTO   O64 6421   4.024   0.763   5.052
   16CHTO  C104 6422   3.990   0.836   4.933
   16CHTO  H191 6423   4.078   0.882   4.888
   16CHTO  C108 6424   3.896   0.951   4.971
   16CHTO   O71 6425   3.965   1.047   5.052
   16CHTO  H171 6426   3.907   1.118   5.072
   16CHTO   O62 6427   4.153   0.619   5.166
   16CHTO   C91 6428   4.262   0.684   5.235
   16CHTO  H178 6429   4.352   0.668   5.175
   16CHTO   C92 6430   4.284   0.605   5.369
   16CHTO  H179 6431   4.292   0.497   5.348
   16CHTO   O66 6432   4.412   0.643   5.421
   16CHTO  H166 6433   4.434   0.590   5.495
   16CHTO   C93 6434   4.173   0.637   5.477
   16CHTO  H180 6435   4.219   0.619   5.576
   16CHTO   N16 6436   4.057   0.545   5.471
   16CHTO  H172 6437   4.008   0.554   5.375
   16CHTO  H173 6438   3.988   0.567   5.551
   16CHTO   C94 6439   4.128   0.789   5.470
   16CHTO  H181 6440   4.037   0.802   5.411
   16CHTO   O61 6441   4.230   0.867   5.406
   16CHTO   C95 6442   4.243   0.840   5.266
   16CHTO  H182 6443   4.153   0.876   5.215
   16CHTO  C106 6444   4.361   0.926   5.209
   16CHTO   O69 6445   4.333   1.066   5.219
   16CHTO  H169 6446   4.405   1.115   5.185
   16CHTO   O63 6447   4.108   0.843   5.609
   16CHTO   C96 6448   4.028   0.982   5.614
   16CHTO  H183 6449   3.936   0.969   5.557
   16CHTO   C98 6450   4.106   1.106   5.556
   16CHTO  H185 6451   4.135   1.088   5.452
   16CHTO   O67 6452   4.015   1.218   5.551
   16CHTO  H167 6453   4.056   1.291   5.509
   16CHTO  C102 6454   4.233   1.146   5.648
   16CHTO  H189 6455   4.237   1.256   5.648
   16CHTO   N18 6456   4.365   1.101   5.597
   16CHTO  H176 6457   4.383   1.145   5.500
   16CHTO  H177 6458   4.366   0.993   5.589
   16CHTO  C105 6459   4.208   1.099   5.794
   16CHTO  H192 6460   4.237   0.994   5.803
   16CHTO   O65 6461   4.069   1.110   5.828
   16CHTO  C100 6462   3.991   1.005   5.767
   16CHTO  H187 6463   4.013   0.913   5.822
   16CHTO  C107 6464   3.841   1.035   5.791
   16CHTO   O70 6465   3.801   1.162   5.739
   16CHTO  H170 6466   3.709   1.175   5.754
   16CHTO   O57 6467   4.294   1.184   5.889
   16CHTO   C85 6468   4.283   1.160   6.031
   16CHTO  H157 6469   4.191   1.214   6.064
   16CHTO   C83 6470   4.402   1.231   6.102
   16CHTO  H155 6471   4.399   1.337   6.076
   16CHTO   O56 6472   4.525   1.180   6.047
   16CHTO  H135 6473   4.533   1.203   5.956
   16CHTO   C81 6474   4.388   1.217   6.256
   16CHTO  H153 6475   4.300   1.273   6.287
   16CHTO   N14 6476   4.497   1.286   6.330
   16CHTO  H141 6477   4.504   1.388   6.298
   16CHTO  H142 6478   4.591   1.238   6.311
   16CHTO   C79 6479   4.363   1.064   6.297
   16CHTO  H151 6480   4.261   1.059   6.334
   16CHTO   O52 6481   4.372   0.973   6.183
   16CHTO   C86 6482   4.280   1.007   6.075
   16CHTO  H158 6483   4.315   0.941   5.993
   16CHTO   C90 6484   4.136   0.960   6.110
   16CHTO   O60 6485   4.130   0.817   6.124
   16CHTO  H138 6486   4.042   0.792   6.146
   16CHTO   O50 6487   4.445   1.009   6.402
   16CHTO   C73 6488   4.427   0.890   6.481
   16CHTO  H145 6489   4.460   0.802   6.425
   16CHTO   C74 6490   4.276   0.871   6.520
   16CHTO  H146 6491   4.218   0.862   6.426
   16CHTO   O54 6492   4.262   0.745   6.587
   16CHTO  H133 6493   4.171   0.729   6.607
   16CHTO   C75 6494   4.230   0.995   6.606
   16CHTO  H147 6495   4.242   1.086   6.546
   16CHTO   N13 6496   4.087   0.991   6.645
   16CHTO  H139 6497   4.025   0.989   6.556
   16CHTO  H140 6498   4.062   1.079   6.702
   16CHTO   C76 6499   4.328   1.008   6.731
   16CHTO  H148 6500   4.314   0.920   6.794
   16CHTO   O49 6501   4.468   1.016   6.689
   16CHTO   C77 6502   4.512   0.903   6.610
   16CHTO  H149 6503   4.502   0.811   6.668
   16CHTO   C88 6504   4.661   0.918   6.578
   16CHTO   O58 6505   4.743   0.917   6.702
   16CHTO  H136 6506   4.833   0.929   6.680
   16CHTO   O51 6507   4.299   1.142   6.807
   16CHTO   C78 6508   4.372   1.152   6.939
   16CHTO  H150 6509   4.469   1.098   6.937
   16CHTO   C80 6510   4.285   1.095   7.054
   16CHTO  H152 6511   4.186   1.146   7.052
   16CHTO   O55 6512   4.264   0.955   7.029
   16CHTO  H134 6513   4.206   0.919   7.093
   16CHTO   C84 6514   4.354   1.120   7.194
   16CHTO  H156 6515   4.448   1.065   7.196
   16CHTO   N15 6516   4.272   1.070   7.308
   16CHTO  H143 6517   4.178   1.121   7.311
   16CHTO  H144 6518   4.323   1.086   7.401
   16CHTO   C87 6519   4.384   1.271   7.207
   16CHTO  H159 6520   4.290   1.326   7.206
   16CHTO   O53 6521   4.474   1.314   7.088
   16CHTO   C82 6522   4.404   1.301   6.964
   16CHTO  H154 6523   4.312   1.360   6.966
   16CHTO   C89 6524   4.492   1.359   6.851
   16CHTO   O59 6525   4.512   1.499   6.868
   16CHTO  H137 6526   4.563   1.533   6.797
   16CHTO   O45 6527   4.463   1.305   7.344
   16CHTO   C67 6528   4.507   1.442   7.350
   16CHTO  H124 6529   4.570   1.462   7.263
   16CHTO   C65 6530   4.387   1.543   7.351
   16CHTO  H122 6531   4.302   1.489   7.392
   16CHTO   O44 6532   4.360   1.575   7.213
   16CHTO  H102 6533   4.282   1.625   7.206
   16CHTO   C63 6534   4.410   1.665   7.448
   16CHTO  H120 6535   4.397   1.630   7.551
   16CHTO   N11 6536   4.310   1.776   7.441
   16CHTO  H108 6537   4.211   1.736   7.453
   16CHTO  H109 6538   4.317   1.824   7.346
   16CHTO   C61 6539   4.559   1.710   7.433
   16CHTO  H118 6540   4.576   1.794   7.502
   16CHTO   O40 6541   4.653   1.604   7.471
   16CHTO   C68 6542   4.602   1.466   7.475
   16CHTO  H125 6543   4.547   1.450   7.570
   16CHTO   C72 6544   4.724   1.371   7.477
   16CHTO   O48 6545   4.691   1.234   7.496
   16CHTO  H105 6546   4.769   1.182   7.497
   16CHTO   O38 6547   4.585   1.749   7.297
   16CHTO   C55 6548   4.700   1.831   7.274
   16CHTO  H112 6549   4.774   1.817   7.354
   16CHTO   C56 6550   4.657   1.983   7.260
   16CHTO  H113 6551   4.579   1.987   7.182
   16CHTO   O42 6552   4.593   2.026   7.382
   16CHTO  H100 6553   4.560   2.113   7.372
   16CHTO   C57 6554   4.780   2.073   7.224
   16CHTO  H114 6555   4.840   2.080   7.314
   16CHTO   N10 6556   4.740   2.212   7.188
   16CHTO  H106 6557   4.811   2.256   7.119
   16CHTO  H107 6558   4.735   2.273   7.276
   16CHTO   C58 6559   4.868   2.009   7.112
   16CHTO  H115 6560   4.818   2.023   7.013
   16CHTO   O37 6561   4.891   1.869   7.134
   16CHTO   C59 6562   4.771   1.791   7.142
   16CHTO  H116 6563   4.707   1.811   7.056
   16CHTO   C70 6564   4.806   1.642   7.141
   16CHTO   O46 6565   4.878   1.603   7.024
   16CHTO  H103 6566   4.897   1.512   7.028
   16CHTO   O39 6567   5.013   2.080   7.113
   16CHTO   C60 6568   5.109   2.029   7.019
   16CHTO  H117 6569   5.117   1.921   7.032
   16CHTO   C62 6570   5.068   2.057   6.872
   16CHTO  H119 6571   4.975   1.998   6.853
   16CHTO   O43 6572   5.038   2.197   6.857
   16CHTO  H101 6573   5.006   2.214   6.770
   16CHTO   C66 6574   5.184   2.006   6.772
   16CHTO  H123 6575   5.202   1.900   6.792
   16CHTO   N12 6576   5.145   2.016   6.630
   16CHTO  H110 6577   5.121   2.118   6.605
   16CHTO  H111 6578   5.061   1.950   6.610
   16CHTO   C69 6579   5.314   2.084   6.805
   16CHTO  H126 6580   5.295   2.193   6.797
   16CHTO   O41 6581   5.353   2.048   6.951
   16CHTO   C64 6582   5.248   2.089   7.054
   16CHTO  H121 6583   5.240   2.200   7.056
   16CHTO   C71 6584   5.293   2.042   7.194
   16CHTO   O47 6585   5.415   2.107   7.232
   16CHTO  H104 6586   5.440   2.078   7.318
   16CHTO   O34 6587   5.433   2.047   6.708
   16CHTO   C49 6588   5.544   2.153   6.688
   16CHTO   H91 6589   5.496   2.243   6.650
   16CHTO   C47 6590   5.645   2.099   6.584
   16CHTO   H89 6591   5.714   2.185   6.566
   16CHTO   O33 6592   5.580   2.067   6.460
   16CHTO   H70 6593   5.544   2.145   6.422
   16CHTO   C45 6594   5.725   1.970   6.641
   16CHTO   H87 6595   5.675   1.879   6.605
   16CHTO    N8 6596   5.864   1.972   6.588
   16CHTO   H75 6597   5.861   1.975   6.480
   16CHTO   H76 6598   5.917   1.884   6.620
   16CHTO   C43 6599   5.714   1.963   6.802
   16CHTO   H85 6600   5.614   1.923   6.821
   16CHTO   O29 6601   5.729   2.095   6.856
   16CHTO   C50 6602   5.622   2.185   6.820
   16CHTO   H92 6603   5.550   2.188   6.903
   16CHTO   C54 6604   5.677   2.329   6.817
   16CHTO   O36 6605   5.728   2.366   6.946
   16CHTO   H72 6606   5.761   2.454   6.942
   16CHTO   O27 6607   5.802   1.869   6.865
   16CHTO   C37 6608   5.826   1.858   7.007
   16CHTO   H79 6609   5.861   1.954   7.046
   16CHTO   C38 6610   5.698   1.819   7.087
   16CHTO   H80 6611   5.652   1.731   7.039
   16CHTO   O31 6612   5.606   1.930   7.077
   16CHTO   H68 6613   5.523   1.906   7.114
   16CHTO   C39 6614   5.730   1.787   7.238
   16CHTO   H81 6615   5.761   1.881   7.285
   16CHTO    N7 6616   5.610   1.739   7.315
   16CHTO   H73 6617   5.637   1.721   7.418
   16CHTO   H74 6618   5.572   1.648   7.271
   16CHTO   C40 6619   5.851   1.687   7.249
   16CHTO   H82 6620   5.822   1.588   7.214
   16CHTO   O26 6621   5.962   1.740   7.174
   16CHTO   C41 6622   5.936   1.751   7.031
   16CHTO   H83 6623   5.904   1.655   6.990
   16CHTO   C52 6624   6.069   1.790   6.961
   16CHTO   O35 6625   6.174   1.688   6.982
   16CHTO   H71 6626   6.253   1.716   6.940
   16CHTO   O28 6627   5.899   1.676   7.385
   16CHTO   C42 6628   6.003   1.581   7.428
   16CHTO   H84 6629   6.020   1.608   7.532
   16CHTO   C44 6630   6.142   1.594   7.357
   16CHTO   H86 6631   6.130   1.571   7.251
   16CHTO   O32 6632   6.184   1.731   7.370
   16CHTO   H69 6633   6.263   1.745   7.322
   16CHTO   C48 6634   6.248   1.492   7.417
   16CHTO   H90 6635   6.269   1.521   7.520
   16CHTO    N9 6636   6.379   1.499   7.345
   16CHTO   H77 6637   6.366   1.473   7.241
   16CHTO   H78 6638   6.450   1.432   7.391
   16CHTO   C51 6639   6.186   1.348   7.416
   16CHTO   H93 6640   6.168   1.321   7.312
   16CHTO   O30 6641   6.064   1.351   7.491
   16CHTO   C46 6642   5.957   1.432   7.426
   16CHTO   H88 6643   5.943   1.398   7.323
   16CHTO   C53 6644   5.829   1.405   7.509
   16CHTO   O72 6645   5.712   1.449   7.440
   16CHTO  H199 6646   5.636   1.432   7.494
   16CHTO   O22 6647   6.270   1.251   7.481
   16CHTO   C31 6648   6.248   1.106   7.466
   16CHTO   H59 6649   6.336   1.057   7.513
   16CHTO   C29 6650   6.122   1.054   7.540
   16CHTO   H57 6651   6.035   1.108   7.500
   16CHTO   O21 6652   6.133   1.091   7.679
   16CHTO   H37 6653   6.203   1.044   7.720
   16CHTO   C27 6654   6.100   0.899   7.519
   16CHTO   H55 6655   6.184   0.845   7.565
   16CHTO    N5 6656   5.973   0.851   7.581
   16CHTO   H43 6657   5.889   0.901   7.536
   16CHTO   H44 6658   5.975   0.868   7.687
   16CHTO   C25 6659   6.103   0.870   7.366
   16CHTO   H53 6660   6.021   0.925   7.317
   16CHTO   O17 6661   6.230   0.916   7.310
   16CHTO   C32 6662   6.246   1.058   7.317
   16CHTO   H60 6663   6.163   1.106   7.265
   16CHTO   C36 6664   6.378   1.096   7.245
   16CHTO   O25 6665   6.373   1.062   7.106
   16CHTO   H40 6666   6.453   1.087   7.064
   16CHTO   O15 6667   6.088   0.716   7.333
   16CHTO   C19 6668   6.061   0.667   7.199
   16CHTO   H47 6669   6.044   0.559   7.213
   16CHTO   C20 6670   5.933   0.728   7.132
   16CHTO   H48 6671   5.941   0.837   7.122
   16CHTO   O19 6672   5.823   0.698   7.219
   16CHTO   H35 6673   5.744   0.739   7.187
   16CHTO   C21 6674   5.911   0.668   6.987
   16CHTO   H49 6675   5.891   0.562   6.995
   16CHTO    N4 6676   5.794   0.728   6.916
   16CHTO   H41 6677   5.782   0.683   6.819
   16CHTO   H42 6678   5.809   0.835   6.904
   16CHTO   C22 6679   6.043   0.685   6.907
   16CHTO   H50 6680   6.064   0.792   6.897
   16CHTO   O14 6681   6.151   0.621   6.977
   16CHTO   C23 6682   6.183   0.680   7.104
   16CHTO   H51 6683   6.209   0.786   7.085
   16CHTO   C34 6684   6.307   0.610   7.161
   16CHTO   O23 6685   6.422   0.634   7.078
   16CHTO   H38 6686   6.496   0.591   7.115
   16CHTO   O16 6687   6.040   0.623   6.778
   16CHTO   C24 6688   6.168   0.660   6.691
   16CHTO   H52 6689   6.249   0.701   6.752
   16CHTO   C26 6690   6.129   0.763   6.584
   16CHTO   H54 6691   6.038   0.727   6.532
   16CHTO   O20 6692   6.096   0.886   6.650
   16CHTO   H36 6693   6.063   0.948   6.589
   16CHTO   C30 6694   6.242   0.783   6.479
   16CHTO   H58 6695   6.325   0.837   6.526
   16CHTO    N6 6696   6.197   0.869   6.366
   16CHTO   H45 6697   6.115   0.822   6.313
   16CHTO   H46 6698   6.278   0.885   6.296
   16CHTO   C33 6699   6.299   0.646   6.431
   16CHTO   H61 6700   6.224   0.594   6.370
   16CHTO   O18 6701   6.334   0.563   6.543
   16CHTO   C28 6702   6.223   0.530   6.628
   16CHTO   H56 6703   6.143   0.482   6.570
   16CHTO   C35 6704   6.271   0.434   6.739
   16CHTO   O24 6705   6.308   0.305   6.690
   16CHTO   H39 6706   6.334   0.250   6.762
   16CHTO    O9 6707   6.412   0.666   6.344
   16CHTO   C13 6708   6.467   0.535   6.279
   16CHTO   H26 6709   6.396   0.452   6.299
   16CHTO   C11 6710   6.611   0.506   6.341
   16CHTO   H24 6711   6.596   0.453   6.437
   16CHTO    O8 6712   6.681   0.629   6.367
   16CHTO    H3 6713   6.761   0.611   6.413
   16CHTO    C9 6714   6.688   0.413   6.243
   16CHTO   H22 6715   6.621   0.328   6.223
   16CHTO    N2 6716   6.809   0.352   6.302
   16CHTO   H10 6717   6.783   0.299   6.393
   16CHTO   H11 6718   6.883   0.428   6.323
   16CHTO    C7 6719   6.710   0.492   6.107
   16CHTO   H20 6720   6.712   0.411   6.030
   16CHTO    O4 6721   6.604   0.584   6.076
   16CHTO   C14 6722   6.472   0.549   6.120
   16CHTO   H27 6723   6.444   0.452   6.075
   16CHTO   C18 6724   6.376   0.655   6.063
   16CHTO   O13 6725   6.239   0.623   6.091
   16CHTO    H7 6726   6.183   0.688   6.053
   16CHTO    O2 6727   6.852   0.574   6.102
   16CHTO    C1 6728   6.872   0.658   5.987
   16CHTO   H14 6729   6.785   0.726   5.975
   16CHTO    C2 6730   6.894   0.578   5.851
   16CHTO   H15 6731   6.960   0.494   5.877
   16CHTO    O6 6732   6.767   0.526   5.807
   16CHTO    H1 6733   6.779   0.469   5.733
   16CHTO    C3 6734   6.960   0.667   5.735
   16CHTO   H16 6735   6.883   0.734   5.694
   16CHTO    N1 6736   7.011   0.582   5.622
   16CHTO    H8 6737   7.088   0.515   5.658
   16CHTO    H9 6738   7.050   0.645   5.543
   16CHTO    C4 6739   7.072   0.761   5.792
   16CHTO   H17 6740   7.158   0.700   5.821
   16CHTO    O1 6741   7.024   0.835   5.905
   16CHTO    C5 6742   6.994   0.750   6.018
   16CHTO   H18 6743   7.079   0.686   6.040
   16CHTO   C16 6744   6.967   0.841   6.140
   16CHTO   O11 6745   7.086   0.913   6.176
   16CHTO    H5 6746   7.069   0.964   6.253
   16CHTO    O3 6747   7.110   0.860   5.694
   16CHTO    C6 6748   7.243   0.920   5.713
   16CHTO   H19 6749   7.275   0.920   5.817
   16CHTO    C8 6750   7.349   0.843   5.628
   16CHTO   H21 6751   7.312   0.834   5.526
   16CHTO    O7 6752   7.363   0.711   5.685
   16CHTO    H2 6753   7.420   0.658   5.631
   16CHTO   C12 6754   7.488   0.920   5.627
   16CHTO   H25 6755   7.529   0.911   5.730
   16CHTO    N3 6756   7.586   0.853   5.535
   16CHTO   H12 6757   7.680   0.905   5.538
   16CHTO   H13 6758   7.547   0.853   5.434
   16CHTO   C15 6759   7.466   1.072   5.595
   16CHTO   H28 6760   7.438   1.088   5.491
   16CHTO   O10 6761   7.588   1.157   5.629
   16CHTO    H4 6762   7.660   1.132   5.574
   16CHTO    O5 6763   7.366   1.129   5.682
   16CHTO   C10 6764   7.237   1.068   5.666
   16CHTO   H23 6765   7.209   1.072   5.561
   16CHTO   C17 6766   7.134   1.149   5.745
   16CHTO   O12 6767   7.120   1.280   5.692
   16CHTO    H6 6768   7.055   1.327   5.740
   17CHTO  H203 6769   9.454   3.535   2.449
   17CHTO   O82 6770   9.367   3.557   2.478
   17CHTO  C123 6771   9.269   3.503   2.388
   17CHTO  H227 6772   9.282   3.394   2.383
   17CHTO   O77 6773   9.143   3.536   2.453
   17CHTO  C118 6774   9.028   3.483   2.385
   17CHTO  H222 6775   9.038   3.374   2.374
   17CHTO  C125 6776   8.899   3.513   2.470
   17CHTO   O84 6777   8.904   3.450   2.598
   17CHTO  H205 6778   8.826   3.470   2.646
   17CHTO  C114 6779   9.016   3.548   2.246
   17CHTO  H218 6780   9.004   3.655   2.260
   17CHTO  C116 6781   9.146   3.526   2.162
   17CHTO  H220 6782   9.152   3.418   2.133
   17CHTO   O79 6783   9.132   3.600   2.040
   17CHTO  H201 6784   9.206   3.585   1.984
   17CHTO  C120 6785   9.274   3.568   2.244
   17CHTO  H224 6786   9.270   3.679   2.254
   17CHTO   N21 6787   9.399   3.535   2.171
   17CHTO  H211 6788   9.432   3.435   2.195
   17CHTO  H212 6789   9.476   3.607   2.195
   17CHTO   O75 6790   8.897   3.489   2.190
   17CHTO  C112 6791   8.809   3.581   2.084
   17CHTO  H216 6792   8.848   3.565   1.982
   17CHTO   O73 6793   8.818   3.718   2.124
   17CHTO  C113 6794   8.751   3.809   2.036
   17CHTO  H217 6795   8.792   3.796   1.933
   17CHTO  C124 6796   8.782   3.953   2.079
   17CHTO   O83 6797   8.921   3.985   2.065
   17CHTO  H204 6798   8.936   4.073   2.093
   17CHTO  C109 6799   8.598   3.780   2.035
   17CHTO  H213 6800   8.561   3.798   2.137
   17CHTO  C110 6801   8.575   3.631   1.994
   17CHTO  H214 6802   8.608   3.617   1.891
   17CHTO   O78 6803   8.434   3.600   1.999
   17CHTO  H200 6804   8.419   3.514   1.964
   17CHTO  C111 6805   8.657   3.538   2.088
   17CHTO  H215 6806   8.621   3.552   2.192
   17CHTO   N19 6807   8.641   3.393   2.058
   17CHTO  H207 6808   8.698   3.334   2.128
   17CHTO  H208 6809   8.676   3.372   1.957
   17CHTO   O74 6810   8.534   3.875   1.944
   17CHTO  C115 6811   8.376   3.893   1.958
   17CHTO  H219 6812   8.330   3.810   2.011
   17CHTO   O76 6813   8.340   4.018   2.042
   17CHTO  C122 6814   8.399   4.140   1.995
   17CHTO  H226 6815   8.499   4.146   2.039
   17CHTO  C126 6816   8.318   4.260   2.056
   17CHTO   O85 6817   8.179   4.259   2.019
   17CHTO  H206 6818   8.137   4.184   2.058
   17CHTO  C121 6819   8.408   4.151   1.837
   17CHTO  H225 6820   8.383   4.255   1.807
   17CHTO   O81 6821   8.545   4.130   1.798
   17CHTO  H202 6822   8.599   4.199   1.831
   17CHTO  C119 6823   8.308   4.053   1.766
   17CHTO  H223 6824   8.211   4.089   1.800
   17CHTO  C117 6825   8.321   3.902   1.811
   17CHTO  H221 6826   8.393   3.844   1.753
   17CHTO   N20 6827   8.192   3.829   1.795
   17CHTO  H209 6828   8.159   3.834   1.692
   17CHTO  H210 6829   8.117   3.871   1.860
   17CHTO   O80 6830   8.295   4.073   1.611
   17CHTO  C103 6831   8.426   4.086   1.520
   17CHTO  H190 6832   8.495   4.160   1.561
   17CHTO  C101 6833   8.507   3.952   1.491
   17CHTO  H188 6834   8.436   3.874   1.465
   17CHTO   O68 6835   8.584   3.909   1.618
   17CHTO  H168 6836   8.626   3.826   1.603
   17CHTO   C99 6837   8.609   3.972   1.368
   17CHTO  H186 6838   8.689   4.043   1.398
   17CHTO   N17 6839   8.678   3.846   1.325
   17CHTO  H174 6840   8.605   3.774   1.289
   17CHTO  H175 6841   8.736   3.805   1.406
   17CHTO   C97 6842   8.535   4.039   1.249
   17CHTO  H184 6843   8.459   3.969   1.212
   17CHTO   O64 6844   8.478   4.163   1.293
   17CHTO  C104 6845   8.370   4.145   1.386
   17CHTO  H191 6846   8.294   4.077   1.346
   17CHTO  C108 6847   8.300   4.280   1.408
   17CHTO   O71 6848   8.239   4.326   1.287
   17CHTO  H171 6849   8.193   4.406   1.304
   17CHTO   O62 6850   8.624   4.080   1.143
   17CHTO   C91 6851   8.570   4.069   1.010
   17CHTO  H178 6852   8.552   3.963   0.992
   17CHTO   C92 6853   8.682   4.113   0.909
   17CHTO  H179 6854   8.777   4.063   0.934
   17CHTO   O66 6855   8.645   4.063   0.779
   17CHTO  H166 6856   8.715   4.078   0.718
   17CHTO   C93 6857   8.697   4.270   0.900
   17CHTO  H180 6858   8.747   4.292   0.804
   17CHTO   N16 6859   8.788   4.325   1.003
   17CHTO  H172 6860   8.749   4.305   1.102
   17CHTO  H173 6861   8.801   4.431   0.989
   17CHTO   C94 6862   8.556   4.341   0.902
   17CHTO  H181 6863   8.534   4.386   1.000
   17CHTO   O61 6864   8.450   4.248   0.876
   17CHTO   C95 6865   8.436   4.152   0.982
   17CHTO  H182 6866   8.408   4.206   1.073
   17CHTO  C106 6867   8.316   4.058   0.951
   17CHTO   O69 6868   8.192   4.131   0.955
   17CHTO  H169 6869   8.121   4.073   0.935
   17CHTO   O63 6870   8.552   4.448   0.796
   17CHTO   C96 6871   8.435   4.550   0.816
   17CHTO  H183 6872   8.424   4.569   0.923
   17CHTO   C98 6873   8.296   4.500   0.762
   17CHTO  H185 6874   8.268   4.405   0.810
   17CHTO   O67 6875   8.196   4.594   0.802
   17CHTO  H167 6876   8.110   4.563   0.780
   17CHTO  C102 6877   8.295   4.489   0.602
   17CHTO  H189 6878   8.191   4.505   0.571
   17CHTO   N18 6879   8.332   4.355   0.548
   17CHTO  H176 6880   8.262   4.281   0.583
   17CHTO  H177 6881   8.432   4.329   0.580
   17CHTO  C105 6882   8.383   4.602   0.541
   17CHTO  H192 6883   8.484   4.564   0.522
   17CHTO   O65 6884   8.395   4.716   0.629
   17CHTO  C100 6885   8.478   4.685   0.743
   17CHTO  H187 6886   8.580   4.672   0.704
   17CHTO  C107 6887   8.483   4.805   0.839
   17CHTO   O70 6888   8.354   4.835   0.896
   17CHTO  H170 6889   8.361   4.909   0.953
   17CHTO   O57 6890   8.316   4.641   0.407
   17CHTO   C85 6891   8.378   4.738   0.320
   17CHTO  H157 6892   8.348   4.838   0.359
   17CHTO   C83 6893   8.312   4.724   0.180
   17CHTO  H155 6894   8.204   4.736   0.191
   17CHTO   O56 6895   8.335   4.591   0.131
   17CHTO  H135 6896   8.290   4.528   0.185
   17CHTO   C81 6897   8.365   4.837   0.086
   17CHTO  H153 6898   8.331   4.932   0.126
   17CHTO   N14 6899   8.298   4.832   9.953
   17CHTO  H141 6900   8.191   4.834   9.965
   17CHTO  H142 6901   8.326   4.743   9.900
   17CHTO   C79 6902   8.524   4.838   0.084
   17CHTO  H151 6903   8.555   4.933   0.129
   17CHTO   O52 6904   8.584   4.731   0.165
   17CHTO   C86 6905   8.536   4.726   0.303
   17CHTO  H158 6906   8.571   4.626   0.336
   17CHTO   C90 6907   8.611   4.830   0.391
   17CHTO   O60 6908   8.751   4.801   0.396
   17CHTO  H138 6909   8.794   4.865   0.449
   17CHTO   O50 6910   8.589   4.835   9.955
   17CHTO   C73 6911   8.727   4.843   9.917
   17CHTO  H145 6912   8.777   4.747   9.935
   17CHTO   C74 6913   8.801   4.955   9.998
   17CHTO  H146 6914   8.791   4.930   0.104
   17CHTO   O54 6915   8.942   4.946   9.968
   17CHTO  H133 6916   8.990   5.007   0.020
   17CHTO   C75 6917   8.737   5.095   9.963
   17CHTO  H147 6918   8.632   5.094   9.994
   17CHTO   N13 6919   8.798   5.209   0.036
   17CHTO  H139 6920   8.788   5.194   0.143
   17CHTO  H140 6921   8.748   5.301   0.010
   17CHTO   C76 6922   8.739   5.116   9.805
   17CHTO  H148 6923   8.843   5.125   9.773
   17CHTO   O49 6924   8.676   5.003   9.737
   17CHTO   C77 6925   8.736   4.876   9.765
   17CHTO  H149 6926   8.841   4.876   9.735
   17CHTO   C88 6927   8.667   4.771   9.678
   17CHTO   O58 6928   8.693   4.795   9.534
   17CHTO  H136 6929   8.650   4.729   9.483
   17CHTO   O51 6930   8.651   5.241   9.763
   17CHTO   C78 6931   8.650   5.262   9.605
   17CHTO  H150 6932   8.673   5.167   9.551
   17CHTO   C80 6933   8.755   5.368   9.565
   17CHTO  H152 6934   8.736   5.460   9.625
   17CHTO   O55 6935   8.884   5.316   9.602
   17CHTO  H134 6936   8.950   5.380   9.586
   17CHTO   C84 6937   8.748   5.401   9.411
   17CHTO  H156 6938   8.784   5.314   9.357
   17CHTO   N15 6939   8.838   5.516   9.373
   17CHTO  H143 6940   8.807   5.605   9.424
   17CHTO  H144 6941   8.834   5.533   9.268
   17CHTO   C87 6942   8.602   5.428   9.365
   17CHTO  H159 6943   8.568   5.525   9.402
   17CHTO   O53 6944   8.507   5.315   9.417
   17CHTO   C82 6945   8.510   5.307   9.561
   17CHTO  H154 6946   8.485   5.404   9.604
   17CHTO   C89 6947   8.402   5.206   9.609
   17CHTO   O59 6948   8.271   5.258   9.584
   17CHTO  H137 6949   8.207   5.198   9.618
   17CHTO   O45 6950   8.600   5.429   9.204
   17CHTO   C67 6951   8.472   5.433   9.139
   17CHTO  H124 6952   8.418   5.341   9.162
   17CHTO   C65 6953   8.386   5.557   9.185
   17CHTO  H122 6954   8.456   5.632   9.220
   17CHTO   O44 6955   8.306   5.511   9.296
   17CHTO  H102 6956   8.264   5.583   9.337
   17CHTO   C63 6957   8.309   5.626   9.065
   17CHTO  H120 6958   8.381   5.687   9.009
   17CHTO   N11 6959   8.206   5.727   9.103
   17CHTO  H108 6960   8.249   5.800   9.168
   17CHTO  H109 6961   8.124   5.679   9.152
   17CHTO   C61 6962   8.259   5.515   8.967
   17CHTO  H118 6963   8.209   5.566   8.883
   17CHTO   O40 6964   8.366   5.436   8.910
   17CHTO   C68 6965   8.494   5.433   8.982
   17CHTO  H125 6966   8.554   5.521   8.951
   17CHTO   C72 6967   8.570   5.307   8.932
   17CHTO   O48 6968   8.706   5.303   8.973
   17CHTO  H105 6969   8.747   5.226   8.939
   17CHTO   O38 6970   8.169   5.423   9.032
   17CHTO   C55 6971   8.071   5.362   8.946
   17CHTO  H112 6972   8.104   5.365   8.841
   17CHTO   C56 6973   7.933   5.436   8.966
   17CHTO  H113 6974   7.913   5.438   9.075
   17CHTO   O42 6975   7.945   5.573   8.924
   17CHTO  H100 6976   7.866   5.620   8.944
   17CHTO   C57 6977   7.818   5.359   8.890
   17CHTO  H114 6978   7.839   5.367   8.783
   17CHTO   N10 6979   7.684   5.419   8.915
   17CHTO  H106 6980   7.607   5.344   8.907
   17CHTO  H107 6981   7.665   5.497   8.843
   17CHTO   C58 6982   7.823   5.210   8.931
   17CHTO  H115 6983   7.802   5.201   9.040
   17CHTO   O37 6984   7.952   5.155   8.901
   17CHTO   C59 6985   8.057   5.212   8.981
   17CHTO  H116 6986   8.034   5.199   9.087
   17CHTO   C70 6987   8.187   5.136   8.950
   17CHTO   O46 6988   8.181   4.999   8.990
   17CHTO  H103 6989   8.264   4.958   8.973
   17CHTO   O39 6990   7.717   5.126   8.849
   17CHTO   C60 6991   7.712   4.986   8.880
   17CHTO  H117 6992   7.814   4.947   8.886
   17CHTO   C62 6993   7.643   4.957   9.017
   17CHTO  H119 6994   7.707   5.003   9.095
   17CHTO   O43 6995   7.514   5.019   9.020
   17CHTO  H101 6996   7.474   5.008   9.104
   17CHTO   C66 6997   7.639   4.798   9.040
   17CHTO  H123 6998   7.740   4.759   9.035
   17CHTO   N12 6999   7.588   4.761   9.174
   17CHTO  H110 7000   7.488   4.801   9.189
   17CHTO  H111 7001   7.655   4.796   9.251
   17CHTO   C69 7002   7.558   4.733   8.925
   17CHTO  H126 7003   7.455   4.775   8.923
   17CHTO   O41 7004   7.632   4.766   8.791
   17CHTO   C64 7005   7.642   4.913   8.763
   17CHTO  H121 7006   7.540   4.956   8.750
   17CHTO   C71 7007   7.722   4.937   8.633
   17CHTO   O47 7008   7.655   4.877   8.522
   17CHTO  H104 7009   7.704   4.894   8.443
   17CHTO   O34 7010   7.546   4.578   8.938
   17CHTO   C49 7011   7.439   4.494   8.862
   17CHTO   H91 7012   7.342   4.525   8.900
   17CHTO   C47 7013   7.465   4.345   8.893
   17CHTO   H89 7014   7.383   4.291   8.842
   17CHTO   O33 7015   7.455   4.320   9.034
   17CHTO   H70 7016   7.367   4.335   9.064
   17CHTO   C45 7017   7.610   4.299   8.836
   17CHTO   H87 7018   7.686   4.318   8.914
   17CHTO    N8 7019   7.607   4.154   8.809
   17CHTO   H75 7020   7.581   4.100   8.899
   17CHTO   H76 7021   7.704   4.121   8.775
   17CHTO   C43 7022   7.653   4.392   8.711
   17CHTO   H85 7023   7.698   4.480   8.757
   17CHTO   O29 7024   7.536   4.426   8.635
   17CHTO   C50 7025   7.445   4.512   8.706
   17CHTO   H92 7026   7.473   4.616   8.685
   17CHTO   C54 7027   7.304   4.501   8.644
   17CHTO   O36 7028   7.303   4.545   8.507
   17CHTO   H72 7029   7.217   4.538   8.472
   17CHTO   O27 7030   7.757   4.338   8.628
   17CHTO   C37 7031   7.802   4.394   8.503
   17CHTO   H79 7032   7.715   4.419   8.440
   17CHTO   C38 7033   7.882   4.527   8.523
   17CHTO   H80 7034   7.962   4.508   8.596
   17CHTO   O31 7035   7.791   4.623   8.578
   17CHTO   H68 7036   7.837   4.702   8.601
   17CHTO   C39 7037   7.943   4.579   8.388
   17CHTO   H81 7038   7.860   4.608   8.324
   17CHTO    N7 7039   8.029   4.702   8.406
   17CHTO   H73 7040   8.066   4.735   8.310
   17CHTO   H74 7041   8.112   4.679   8.471
   17CHTO   C40 7042   8.021   4.463   8.314
   17CHTO   H82 7043   8.111   4.438   8.369
   17CHTO   O26 7044   7.933   4.350   8.301
   17CHTO   C41 7045   7.890   4.292   8.427
   17CHTO   H83 7046   7.978   4.267   8.489
   17CHTO   C52 7047   7.813   4.161   8.398
   17CHTO   O35 7048   7.899   4.060   8.334
   17CHTO   H71 7049   7.849   3.983   8.317
   17CHTO   O28 7050   8.058   4.500   8.179
   17CHTO   C42 7051   8.145   4.418   8.094
   17CHTO   H84 7052   8.151   4.475   8.002
   17CHTO   C44 7053   8.088   4.277   8.054
   17CHTO   H86 7054   8.069   4.220   8.146
   17CHTO   O32 7055   7.963   4.300   7.987
   17CHTO   H69 7056   7.921   4.219   7.968
   17CHTO   C48 7057   8.189   4.192   7.966
   17CHTO   H90 7058   8.197   4.240   7.869
   17CHTO    N9 7059   8.138   4.053   7.940
   17CHTO   H77 7060   8.126   4.000   8.033
   17CHTO   H78 7061   8.207   4.000   7.875
   17CHTO   C51 7062   8.330   4.194   8.035
   17CHTO   H93 7063   8.323   4.143   8.131
   17CHTO   O30 7064   8.370   4.331   8.049
   17CHTO   C46 7065   8.291   4.404   8.149
   17CHTO   H88 7066   8.290   4.348   8.242
   17CHTO   C53 7067   8.364   4.539   8.167
   17CHTO   O72 7068   8.323   4.605   8.287
   17CHTO  H199 7069   8.371   4.685   8.296
   17CHTO   O22 7070   8.432   4.132   7.953
   17CHTO   C31 7071   8.570   4.107   8.001
   17CHTO   H59 7072   8.622   4.055   7.917
   17CHTO   C29 7073   8.652   4.234   8.033
   17CHTO   H57 7074   8.603   4.285   8.118
   17CHTO   O21 7075   8.645   4.324   7.921
   17CHTO   H37 7076   8.690   4.287   7.847
   17CHTO   C27 7077   8.800   4.198   8.075
   17CHTO   H55 7078   8.851   4.151   7.989
   17CHTO    N5 7079   8.879   4.317   8.117
   17CHTO   H43 7080   8.833   4.364   8.203
   17CHTO   H44 7081   8.886   4.387   8.035
   17CHTO   C25 7082   8.796   4.091   8.190
   17CHTO   H53 7083   8.749   4.137   8.279
   17CHTO   O17 7084   8.715   3.977   8.150
   17CHTO   C32 7085   8.578   4.009   8.123
   17CHTO   H60 7086   8.533   4.057   8.210
   17CHTO   C36 7087   8.502   3.877   8.096
   17CHTO   O25 7088   8.502   3.793   8.212
   17CHTO   H40 7089   8.456   3.714   8.194
   17CHTO   O15 7090   8.942   4.040   8.228
   17CHTO   C19 7091   8.967   3.954   8.343
   17CHTO   H47 7092   9.077   3.954   8.353
   17CHTO   C20 7093   8.905   4.007   8.476
   17CHTO   H48 7094   8.797   4.023   8.467
   17CHTO   O19 7095   8.966   4.135   8.502
   17CHTO   H35 7096   8.926   4.176   8.577
   17CHTO   C21 7097   8.930   3.907   8.596
   17CHTO   H49 7098   9.037   3.904   8.618
   17CHTO    N4 7099   8.862   3.951   8.721
   17CHTO   H41 7100   8.883   3.881   8.801
   17CHTO   H42 7101   8.755   3.955   8.705
   17CHTO   C22 7102   8.887   3.765   8.552
   17CHTO   H50 7103   8.780   3.767   8.531
   17CHTO   O14 7104   8.958   3.726   8.433
   17CHTO   C23 7105   8.926   3.806   8.319
   17CHTO   H51 7106   8.817   3.797   8.301
   17CHTO   C34 7107   8.997   3.749   8.196
   17CHTO   O23 7108   8.943   3.621   8.160
   17CHTO   H38 7109   8.988   3.588   8.085
   17CHTO   O16 7110   8.919   3.665   8.650
   17CHTO   C24 7111   8.822   3.540   8.644
   17CHTO   H52 7112   8.775   3.530   8.546
   17CHTO   C26 7113   8.713   3.556   8.753
   17CHTO   H54 7114   8.763   3.578   8.850
   17CHTO   O20 7115   8.632   3.670   8.718
   17CHTO   H36 7116   8.569   3.686   8.786
   17CHTO   C30 7117   8.629   3.426   8.768
   17CHTO   H58 7118   8.568   3.410   8.677
   17CHTO    N6 7119   8.532   3.436   8.881
   17CHTO   H45 7120   8.585   3.449   8.974
   17CHTO   H46 7121   8.472   3.347   8.887
   17CHTO   C33 7122   8.722   3.302   8.781
   17CHTO   H61 7123   8.780   3.308   8.875
   17CHTO   O18 7124   8.815   3.301   8.671
   17CHTO   C28 7125   8.905   3.412   8.668
   17CHTO   H56 7126   8.958   3.421   8.763
   17CHTO   C35 7127   9.008   3.391   8.555
   17CHTO   O24 7128   9.091   3.277   8.577
   17CHTO   H39 7129   9.153   3.269   8.508
   17CHTO    O9 7130   8.648   3.178   8.789
   17CHTO   C13 7131   8.742   3.050   8.805
   17CHTO   H26 7132   8.837   3.082   8.854
   17CHTO   C11 7133   8.769   2.987   8.661
   17CHTO   H24 7134   8.847   3.047   8.612
   17CHTO    O8 7135   8.650   2.993   8.580
   17CHTO    H3 7136   8.668   2.964   8.493
   17CHTO    C9 7137   8.819   2.841   8.681
   17CHTO   H22 7138   8.903   2.849   8.752
   17CHTO    N2 7139   8.881   2.782   8.560
   17CHTO   H10 7140   8.961   2.846   8.524
   17CHTO   H11 7141   8.807   2.768   8.483
   17CHTO    C7 7142   8.704   2.756   8.748
   17CHTO   H20 7143   8.759   2.682   8.811
   17CHTO    O4 7144   8.616   2.835   8.832
   17CHTO   C14 7145   8.679   2.943   8.904
   17CHTO   H27 7146   8.760   2.900   8.967
   17CHTO   C18 7147   8.573   3.000   9.002
   17CHTO   O13 7148   8.628   3.105   9.083
   17CHTO    H7 7149   8.562   3.139   9.139
   17CHTO    O2 7150   8.612   2.675   8.639
   17CHTO    C1 7151   8.490   2.614   8.686
   17CHTO   H14 7152   8.423   2.692   8.726
   17CHTO    C2 7153   8.510   2.502   8.797
   17CHTO   H15 7154   8.594   2.440   8.763
   17CHTO    O6 7155   8.544   2.565   8.922
   17CHTO    H1 7156   8.567   2.501   8.986
   17CHTO    C3 7157   8.379   2.411   8.816
   17CHTO   H16 7158   8.301   2.471   8.864
   17CHTO    N1 7159   8.405   2.293   8.906
   17CHTO    H8 7160   8.482   2.229   8.862
   17CHTO    H9 7161   8.314   2.236   8.920
   17CHTO    C4 7162   8.321   2.369   8.676
   17CHTO   H17 7163   8.392   2.302   8.627
   17CHTO    O1 7164   8.299   2.486   8.595
   17CHTO    C5 7165   8.420   2.555   8.560
   17CHTO   H18 7166   8.489   2.486   8.512
   17CHTO   C16 7167   8.384   2.667   8.459
   17CHTO   O11 7168   8.336   2.612   8.336
   17CHTO    H5 7169   8.315   2.682   8.277
   17CHTO    O3 7170   8.193   2.305   8.689
   17CHTO    C6 7171   8.145   2.235   8.569
   17CHTO   H19 7172   8.191   2.272   8.477
   17CHTO    C8 7173   8.173   2.082   8.580
   17CHTO   H21 7174   8.134   2.046   8.676
   17CHTO    O7 7175   8.316   2.065   8.577
   17CHTO    H2 7176   8.338   1.974   8.590
   17CHTO   C12 7177   8.102   2.004   8.462
   17CHTO   H25 7178   8.152   2.035   8.368
   17CHTO    N3 7179   8.122   1.855   8.475
   17CHTO   H12 7180   8.075   1.805   8.392
   17CHTO   H13 7181   8.080   1.820   8.568
   17CHTO   C15 7182   7.950   2.046   8.454
   17CHTO   H28 7183   7.893   2.010   8.540
   17CHTO   O10 7184   7.882   2.000   8.324
   17CHTO    H4 7185   7.878   1.907   8.322
   17CHTO    O5 7186   7.938   2.189   8.444
   17CHTO   C10 7187   7.992   2.260   8.556
   17CHTO   H23 7188   7.942   2.226   8.647
   17CHTO   C17 7189   7.961   2.409   8.540
   17CHTO   O12 7190   7.821   2.435   8.554
   17CHTO    H6 7191   7.806   2.527   8.547
   18CHTO  H203 7192   8.199   8.559   4.208
   18CHTO   O82 7193   8.147   8.499   4.258
   18CHTO  C123 7194   8.155   8.367   4.202
   18CHTO  H227 7195   8.261   8.336   4.202
   18CHTO   O77 7196   8.079   8.285   4.296
   18CHTO  C118 7197   8.087   8.144   4.266
   18CHTO  H222 7198   8.192   8.113   4.264
   18CHTO  C125 7199   8.012   8.066   4.380
   18CHTO   O84 7200   8.084   8.075   4.504
   18CHTO  H205 7201   8.038   8.028   4.570
   18CHTO  C114 7202   8.022   8.114   4.129
   18CHTO  H218 7203   7.915   8.133   4.136
   18CHTO  C116 7204   8.080   8.205   4.015
   18CHTO  H220 7205   8.181   8.166   3.987
   18CHTO   O79 7206   7.997   8.191   3.898
   18CHTO  H201 7207   8.035   8.238   3.826
   18CHTO  C120 7208   8.090   8.356   4.060
   18CHTO  H224 7209   7.986   8.395   4.063
   18CHTO   N21 7210   8.164   8.437   3.959
   18CHTO  H211 7211   8.270   8.436   3.980
   18CHTO  H212 7212   8.127   8.538   3.958
   18CHTO   O75 7213   8.047   7.973   4.112
   18CHTO  C112 7214   7.967   7.900   3.991
   18CHTO  H216 7215   7.986   7.954   3.897
   18CHTO   O73 7216   7.827   7.900   4.025
   18CHTO  C113 7217   7.746   7.846   3.920
   18CHTO  H217 7218   7.764   7.904   3.826
   18CHTO  C124 7219   7.598   7.867   3.957
   18CHTO   O83 7220   7.562   8.006   3.962
   18CHTO  H204 7221   7.471   8.014   3.984
   18CHTO  C109 7222   7.779   7.696   3.896
   18CHTO  H213 7223   7.748   7.642   3.987
   18CHTO  C110 7224   7.931   7.677   3.869
   18CHTO  H214 7225   7.954   7.715   3.769
   18CHTO   O78 7226   7.961   7.536   3.868
   18CHTO  H200 7227   8.050   7.522   3.843
   18CHTO  C111 7228   8.018   7.752   3.975
   18CHTO  H215 7229   8.006   7.701   4.072
   18CHTO   N19 7230   8.163   7.750   3.942
   18CHTO  H207 7231   8.219   7.800   4.020
   18CHTO  H208 7232   8.180   7.799   3.848
   18CHTO   O74 7233   7.700   7.647   3.783
   18CHTO  C115 7234   7.665   7.492   3.790
   18CHTO  H219 7235   7.736   7.437   3.851
   18CHTO   O76 7236   7.529   7.469   3.857
   18CHTO  C122 7237   7.427   7.548   3.795
   18CHTO  H226 7238   7.450   7.652   3.816
   18CHTO  C126 7239   7.291   7.521   3.868
   18CHTO   O85 7240   7.251   7.384   3.868
   18CHTO  H206 7241   7.312   7.333   3.919
   18CHTO  C121 7242   7.417   7.528   3.637
   18CHTO  H225 7243   7.315   7.492   3.613
   18CHTO   O81 7244   7.433   7.655   3.574
   18CHTO  H202 7245   7.362   7.712   3.597
   18CHTO  C119 7246   7.521   7.422   3.585
   18CHTO  H223 7247   7.482   7.328   3.625
   18CHTO  C117 7248   7.668   7.439   3.642
   18CHTO  H221 7249   7.729   7.511   3.589
   18CHTO   N20 7250   7.744   7.310   3.631
   18CHTO  H209 7251   7.747   7.278   3.527
   18CHTO  H210 7252   7.698   7.234   3.692
   18CHTO   O80 7253   7.514   7.393   3.430
   18CHTO  C103 7254   7.535   7.513   3.321
   18CHTO  H190 7255   7.453   7.585   3.327
   18CHTO  C101 7256   7.673   7.592   3.321
   18CHTO  H188 7257   7.755   7.520   3.330
   18CHTO   O68 7258   7.679   7.687   3.440
   18CHTO  H168 7259   7.764   7.726   3.446
   18CHTO   C99 7260   7.694   7.675   3.185
   18CHTO  H186 7261   7.622   7.760   3.184
   18CHTO   N17 7262   7.831   7.736   3.170
   18CHTO  H174 7263   7.906   7.657   3.164
   18CHTO  H175 7264   7.851   7.803   3.252
   18CHTO   C97 7265   7.659   7.589   3.061
   18CHTO  H184 7266   7.736   7.510   3.049
   18CHTO   O64 7267   7.527   7.533   3.078
   18CHTO  C104 7268   7.521   7.437   3.184
   18CHTO  H191 7269   7.599   7.362   3.176
   18CHTO  C108 7270   7.388   7.361   3.174
   18CHTO   O71 7271   7.382   7.286   3.052
   18CHTO  H171 7272   7.300   7.239   3.049
   18CHTO   O62 7273   7.647   7.668   2.941
   18CHTO   C91 7274   7.688   7.604   2.819
   18CHTO  H178 7275   7.793   7.576   2.832
   18CHTO   C92 7276   7.684   7.713   2.706
   18CHTO  H179 7277   7.740   7.802   2.738
   18CHTO   O66 7278   7.755   7.660   2.593
   18CHTO  H166 7279   7.765   7.727   2.527
   18CHTO   C93 7280   7.536   7.748   2.661
   18CHTO  H180 7281   7.542   7.784   2.557
   18CHTO   N16 7282   7.478   7.861   2.737
   18CHTO  H172 7283   7.471   7.836   2.842
   18CHTO  H173 7284   7.380   7.886   2.698
   18CHTO   C94 7285   7.444   7.620   2.666
   18CHTO  H181 7286   7.388   7.613   2.760
   18CHTO   O61 7287   7.524   7.501   2.657
   18CHTO   C95 7288   7.601   7.477   2.776
   18CHTO  H182 7289   7.532   7.451   2.857
   18CHTO  C106 7290   7.691   7.350   2.755
   18CHTO   O69 7291   7.611   7.233   2.741
   18CHTO  H169 7292   7.666   7.158   2.727
   18CHTO   O63 7293   7.347   7.623   2.549
   18CHTO   C96 7294   7.245   7.502   2.546
   18CHTO  H183 7295   7.211   7.485   2.648
   18CHTO   C98 7296   7.305   7.369   2.490
   18CHTO  H185 7297   7.389   7.334   2.552
   18CHTO   O67 7298   7.205   7.266   2.503
   18CHTO  H167 7299   7.241   7.183   2.478
   18CHTO  C102 7300   7.346   7.384   2.336
   18CHTO  H189 7301   7.343   7.282   2.294
   18CHTO   N18 7302   7.484   7.433   2.312
   18CHTO  H176 7303   7.555   7.364   2.355
   18CHTO  H177 7304   7.497   7.531   2.357
   18CHTO  C105 7305   7.240   7.471   2.262
   18CHTO  H192 7306   7.277   7.574   2.253
   18CHTO   O65 7307   7.113   7.479   2.330
   18CHTO  C100 7308   7.121   7.549   2.456
   18CHTO  H187 7309   7.133   7.656   2.433
   18CHTO  C107 7310   6.987   7.536   2.533
   18CHTO   O70 7311   6.950   7.399   2.557
   18CHTO  H170 7312   6.868   7.397   2.603
   18CHTO   O57 7313   7.227   7.406   2.124
   18CHTO   C85 7314   7.161   7.475   2.017
   18CHTO  H157 7315   7.052   7.468   2.038
   18CHTO   C83 7316   7.185   7.394   1.885
   18CHTO  H155 7317   7.150   7.292   1.901
   18CHTO   O56 7318   7.327   7.385   1.861
   18CHTO  H135 7319   7.369   7.336   1.929
   18CHTO   C81 7320   7.103   7.458   1.770
   18CHTO  H153 7321   6.998   7.449   1.795
   18CHTO   N14 7322   7.113   7.379   1.645
   18CHTO  H141 7323   7.087   7.277   1.663
   18CHTO  H142 7324   7.213   7.383   1.606
   18CHTO   C79 7325   7.136   7.614   1.757
   18CHTO  H151 7326   7.043   7.667   1.780
   18CHTO   O52 7327   7.236   7.660   1.854
   18CHTO   C86 7328   7.208   7.625   1.993
   18CHTO  H158 7329   7.305   7.644   2.043
   18CHTO   C90 7330   7.107   7.725   2.055
   18CHTO   O60 7331   7.163   7.857   2.061
   18CHTO  H138 7332   7.100   7.916   2.097
   18CHTO   O50 7333   7.177   7.662   1.628
   18CHTO   C73 7334   7.199   7.797   1.584
   18CHTO  H145 7335   7.292   7.837   1.629
   18CHTO   C74 7336   7.080   7.889   1.626
   18CHTO  H146 7337   7.072   7.886   1.736
   18CHTO   O54 7338   7.113   8.026   1.593
   18CHTO  H133 7339   7.045   8.083   1.622
   18CHTO   C75 7340   6.949   7.837   1.556
   18CHTO  H147 7341   6.933   7.732   1.584
   18CHTO   N13 7342   6.826   7.909   1.597
   18CHTO  H139 7343   6.812   7.898   1.703
   18CHTO  H140 7344   6.741   7.867   1.546
   18CHTO   C76 7345   6.975   7.840   1.398
   18CHTO  H148 7346   6.995   7.943   1.369
   18CHTO   O49 7347   7.092   7.757   1.365
   18CHTO   C77 7348   7.213   7.801   1.429
   18CHTO  H149 7349   7.238   7.902   1.398
   18CHTO   C88 7350   7.329   7.713   1.380
   18CHTO   O58 7351   7.349   7.728   1.233
   18CHTO  H136 7352   7.421   7.675   1.206
   18CHTO   O51 7353   6.857   7.778   1.318
   18CHTO   C78 7354   6.879   7.785   1.162
   18CHTO  H150 7355   6.987   7.779   1.136
   18CHTO   C80 7356   6.820   7.915   1.104
   18CHTO  H152 7357   6.717   7.930   1.145
   18CHTO   O55 7358   6.903   8.024   1.150
   18CHTO  H134 7359   6.866   8.106   1.124
   18CHTO   C84 7360   6.814   7.911   0.946
   18CHTO  H156 7361   6.916   7.910   0.908
   18CHTO   N15 7362   6.748   8.033   0.888
   18CHTO  H143 7363   6.647   8.041   0.922
   18CHTO  H144 7364   6.749   8.028   0.781
   18CHTO   C87 7365   6.743   7.781   0.902
   18CHTO  H159 7366   6.641   7.779   0.940
   18CHTO   O53 7367   6.824   7.665   0.959
   18CHTO   C82 7368   6.812   7.660   1.102
   18CHTO  H154 7369   6.707   7.653   1.132
   18CHTO   C89 7370   6.882   7.532   1.152
   18CHTO   O59 7371   6.818   7.415   1.099
   18CHTO  H137 7372   6.861   7.338   1.131
   18CHTO   O45 7373   6.737   7.765   0.740
   18CHTO   C67 7374   6.718   7.630   0.692
   18CHTO  H124 7375   6.799   7.568   0.730
   18CHTO   C65 7376   6.580   7.569   0.736
   18CHTO  H122 7377   6.513   7.653   0.751
   18CHTO   O44 7378   6.603   7.506   0.864
   18CHTO  H102 7379   6.521   7.480   0.902
   18CHTO   C63 7380   6.512   7.481   0.624
   18CHTO  H120 7381   6.466   7.547   0.551
   18CHTO   N11 7382   6.395   7.397   0.667
   18CHTO  H108 7383   6.322   7.459   0.715
   18CHTO  H109 7384   6.427   7.321   0.735
   18CHTO   C61 7385   6.623   7.400   0.549
   18CHTO  H118 7386   6.574   7.346   0.466
   18CHTO   O40 7387   6.725   7.485   0.489
   18CHTO   C68 7388   6.733   7.625   0.534
   18CHTO  H125 7389   6.652   7.683   0.486
   18CHTO   C72 7390   6.867   7.683   0.484
   18CHTO   O48 7391   6.880   7.824   0.504
   18CHTO  H105 7392   6.965   7.852   0.475
   18CHTO   O38 7393   6.688   7.308   0.639
   18CHTO   C55 7394   6.751   7.194   0.580
   18CHTO  H112 7395   6.784   7.217   0.477
   18CHTO   C56 7396   6.653   7.069   0.583
   18CHTO  H113 7397   6.617   7.059   0.687
   18CHTO   O42 7398   6.537   7.096   0.503
   18CHTO  H100 7399   6.474   7.026   0.511
   18CHTO   C57 7400   6.727   6.937   0.537
   18CHTO  H114 7401   6.745   6.947   0.430
   18CHTO   N10 7402   6.645   6.814   0.556
   18CHTO  H106 7403   6.707   6.728   0.573
   18CHTO  H107 7404   6.582   6.797   0.470
   18CHTO   C58 7405   6.863   6.925   0.609
   18CHTO  H115 7406   6.845   6.903   0.718
   18CHTO   O37 7407   6.941   7.046   0.597
   18CHTO   C59 7408   6.879   7.159   0.659
   18CHTO  H116 7409   6.855   7.136   0.763
   18CHTO   C70 7410   6.978   7.276   0.659
   18CHTO   O46 7411   7.093   7.250   0.742
   18CHTO  H103 7412   7.147   7.326   0.744
   18CHTO   O39 7413   6.951   6.807   0.544
   18CHTO   C60 7414   7.086   6.796   0.592
   18CHTO  H117 7415   7.139   6.888   0.568
   18CHTO   C62 7416   7.094   6.774   0.746
   18CHTO  H119 7417   7.054   6.867   0.794
   18CHTO   O43 7418   7.011   6.663   0.783
   18CHTO  H101 7419   7.011   6.652   0.877
   18CHTO   C66 7420   7.248   6.756   0.789
   18CHTO  H123 7421   7.304   6.844   0.757
   18CHTO   N12 7422   7.266   6.749   0.936
   18CHTO  H110 7423   7.210   6.666   0.976
   18CHTO  H111 7424   7.234   6.842   0.982
   18CHTO   C69 7425   7.305   6.633   0.714
   18CHTO  H126 7426   7.245   6.543   0.738
   18CHTO   O41 7427   7.297   6.664   0.563
   18CHTO   C64 7428   7.157   6.682   0.515
   18CHTO  H121 7429   7.099   6.588   0.531
   18CHTO   C71 7430   7.159   6.711   0.363
   18CHTO   O47 7431   7.213   6.601   0.290
   18CHTO  H104 7432   7.216   6.623   0.198
   18CHTO   O34 7433   7.454   6.602   0.750
   18CHTO   C49 7434   7.515   6.462   0.717
   18CHTO   H91 7435   7.460   6.388   0.775
   18CHTO   C47 7436   7.664   6.464   0.759
   18CHTO   H89 7437   7.700   6.360   0.742
   18CHTO   O33 7438   7.676   6.494   0.900
   18CHTO   H70 7439   7.638   6.425   0.951
   18CHTO   C45 7440   7.747   6.572   0.671
   18CHTO   H87 7441   7.744   6.669   0.722
   18CHTO    N8 7442   7.888   6.527   0.664
   18CHTO   H75 7443   7.929   6.516   0.763
   18CHTO   H76 7444   7.947   6.599   0.608
   18CHTO   C43 7445   7.674   6.597   0.529
   18CHTO   H85 7446   7.597   6.671   0.550
   18CHTO   O29 7447   7.617   6.474   0.481
   18CHTO   C50 7448   7.510   6.424   0.564
   18CHTO   H92 7449   7.416   6.461   0.523
   18CHTO   C54 7450   7.499   6.271   0.545
   18CHTO   O36 7451   7.450   6.240   0.414
   18CHTO   H72 7452   7.444   6.147   0.404
   18CHTO   O27 7453   7.756   6.660   0.429
   18CHTO   C37 7454   7.727   6.704   0.295
   18CHTO   H79 7455   7.695   6.618   0.234
   18CHTO   C38 7456   7.611   6.808   0.293
   18CHTO   H80 7457   7.632   6.885   0.368
   18CHTO   O31 7458   7.491   6.739   0.330
   18CHTO   H68 7459   7.420   6.800   0.341
   18CHTO   C39 7460   7.596   6.877   0.151
   18CHTO   H81 7461   7.563   6.799   0.081
   18CHTO    N7 7462   7.491   6.984   0.149
   18CHTO   H73 7463   7.483   7.026   0.049
   18CHTO   H74 7464   7.517   7.062   0.219
   18CHTO   C40 7465   7.736   6.929   0.101
   18CHTO   H82 7466   7.770   7.010   0.166
   18CHTO   O26 7467   7.827   6.819   0.100
   18CHTO   C41 7468   7.855   6.765   0.232
   18CHTO   H83 7469   7.894   6.844   0.297
   18CHTO   C52 7470   7.965   6.660   0.213
   18CHTO   O35 7471   8.089   6.720   0.174
   18CHTO   H71 7472   8.154   6.653   0.162
   18CHTO   O28 7473   7.733   6.976   9.965
   18CHTO   C42 7474   7.844   7.045   9.900
   18CHTO   H84 7475   7.806   7.066   9.800
   18CHTO   C44 7476   7.978   6.965   9.880
   18CHTO   H86 7477   8.018   6.940   9.979
   18CHTO   O32 7478   7.944   6.843   9.812
   18CHTO   H69 7479   8.020   6.788   9.805
   18CHTO   C48 7480   8.087   7.050   9.802
   18CHTO   H90 7481   8.052   7.060   9.699
   18CHTO    N9 7482   8.220   6.980   9.793
   18CHTO   H77 7483   8.259   6.963   9.892
   18CHTO   H78 7484   8.288   7.038   9.734
   18CHTO   C51 7485   8.098   7.193   9.865
   18CHTO   H93 7486   8.144   7.184   9.964
   18CHTO   O30 7487   7.967   7.250   9.871
   18CHTO   C46 7488   7.880   7.183   9.964
   18CHTO   H88 7489   7.931   7.168   0.059
   18CHTO   C53 7490   7.759   7.279   9.984
   18CHTO   O72 7491   7.688   7.250   0.104
   18CHTO  H199 7492   7.617   7.311   0.113
   18CHTO   O22 7493   8.175   7.285   9.783
   18CHTO   C31 7494   8.217   7.418   9.833
   18CHTO   H59 7495   8.267   7.468   9.747
   18CHTO   C29 7496   8.101   7.511   9.878
   18CHTO   H57 7497   8.045   7.457   9.956
   18CHTO   O21 7498   8.011   7.527   9.766
   18CHTO   H37 7499   8.052   7.576   9.698
   18CHTO   C27 7500   8.149   7.649   9.937
   18CHTO   H55 7501   8.190   7.710   9.855
   18CHTO    N5 7502   8.039   7.725   0.001
   18CHTO   H43 7503   7.997   7.668   0.083
   18CHTO   H44 7504   7.962   7.747   9.929
   18CHTO   C25 7505   8.266   7.624   0.038
   18CHTO   H53 7506   8.226   7.571   0.126
   18CHTO   O17 7507   8.370   7.542   9.979
   18CHTO   C32 7508   8.325   7.410   9.946
   18CHTO   H60 7509   8.281   7.362   0.033
   18CHTO   C36 7510   8.448   7.326   9.902
   18CHTO   O25 7511   8.540   7.310   0.011
   18CHTO   H40 7512   8.613   7.258   9.983
   18CHTO   O15 7513   8.331   7.760   0.084
   18CHTO   C19 7514   8.396   7.776   0.213
   18CHTO   H47 7515   8.422   7.883   0.216
   18CHTO   C20 7516   8.303   7.744   0.335
   18CHTO   H48 7517   8.263   7.642   0.330
   18CHTO   O19 7518   8.192   7.835   0.327
   18CHTO   H35 7519   8.129   7.816   0.393
   18CHTO   C21 7520   8.380   7.758   0.472
   18CHTO   H49 7521   8.407   7.863   0.486
   18CHTO    N4 7522   8.296   7.719   0.589
   18CHTO   H41 7523   8.352   7.733   0.680
   18CHTO   H42 7524   8.267   7.616   0.580
   18CHTO   C22 7525   8.512   7.677   0.462
   18CHTO   H50 7526   8.485   7.572   0.447
   18CHTO   O14 7527   8.592   7.722   0.351
   18CHTO   C23 7528   8.530   7.697   0.224
   18CHTO   H51 7529   8.515   7.589   0.215
   18CHTO   C34 7530   8.628   7.740   0.113
   18CHTO   O23 7531   8.743   7.655   0.110
   18CHTO   H38 7532   8.799   7.680   0.039
   18CHTO   O16 7533   8.594   7.693   0.579
   18CHTO   C24 7534   8.707   7.582   0.596
   18CHTO   H52 7535   8.747   7.549   0.500
   18CHTO   C26 7536   8.649   7.461   0.673
   18CHTO   H54 7537   8.591   7.499   0.760
   18CHTO   O20 7538   8.557   7.392   0.586
   18CHTO   H36 7539   8.512   7.324   0.633
   18CHTO   C30 7540   8.761   7.366   0.726
   18CHTO   H58 7541   8.811   7.316   0.642
   18CHTO    N6 7542   8.703   7.258   0.810
   18CHTO   H45 7543   8.653   7.300   0.896
   18CHTO   H46 7544   8.781   7.192   0.844
   18CHTO   C33 7545   8.870   7.450   0.801
   18CHTO   H61 7546   8.825   7.502   0.886
   18CHTO   O18 7547   8.920   7.548   0.707
   18CHTO   C28 7548   8.823   7.648   0.674
   18CHTO   H56 7549   8.784   7.694   0.765
   18CHTO   C35 7550   8.890   7.758   0.589
   18CHTO   O24 7551   8.996   7.824   0.659
   18CHTO   H39 7552   9.036   7.887   0.602
   18CHTO    O9 7553   8.977   7.371   0.857
   18CHTO   C13 7554   9.102   7.465   0.916
   18CHTO   H26 7555   9.058   7.561   0.951
   18CHTO   C11 7556   9.210   7.487   0.801
   18CHTO   H24 7557   9.175   7.569   0.736
   18CHTO    O8 7558   9.221   7.368   0.721
   18CHTO    H3 7559   9.277   7.384   0.647
   18CHTO    C9 7560   9.345   7.526   0.867
   18CHTO   H22 7561   9.321   7.608   0.937
   18CHTO    N2 7562   9.444   7.585   0.773
   18CHTO   H10 7563   9.401   7.670   0.723
   18CHTO   H11 7564   9.475   7.510   0.702
   18CHTO    C7 7565   9.396   7.401   0.950
   18CHTO   H20 7566   9.460   7.446   1.029
   18CHTO    O4 7567   9.288   7.326   1.011
   18CHTO   C14 7568   9.170   7.400   1.045
   18CHTO   H27 7569   9.200   7.482   1.114
   18CHTO   C18 7570   9.076   7.307   1.125
   18CHTO   O13 7571   8.966   7.381   1.178
   18CHTO    H7 7572   8.911   7.323   1.228
   18CHTO    O2 7573   9.487   7.297   0.857
   18CHTO    C1 7574   9.517   7.169   0.916
   18CHTO   H14 7575   9.423   7.124   0.957
   18CHTO    C2 7576   9.625   7.174   1.032
   18CHTO   H15 7577   9.709   7.233   0.992
   18CHTO    O6 7578   9.568   7.242   1.145
   18CHTO    H1 7579   9.633   7.255   1.211
   18CHTO    C3 7580   9.675   7.027   1.072
   18CHTO   H16 7581   9.591   6.972   1.119
   18CHTO    N1 7582   9.787   7.030   1.171
   18CHTO    H8 7583   9.872   7.082   1.129
   18CHTO    H9 7584   9.816   6.930   1.199
   18CHTO    C4 7585   9.710   6.946   0.942
   18CHTO   H17 7586   9.796   6.993   0.893
   18CHTO    O1 7587   9.598   6.944   0.852
   18CHTO    C5 7588   9.563   7.074   0.801
   18CHTO   H18 7589   9.650   7.120   0.754
   18CHTO   C16 7590   9.452   7.056   0.694
   18CHTO   O11 7591   9.502   6.984   0.581
   18CHTO    H5 7592   9.434   6.974   0.518
   18CHTO    O3 7593   9.741   6.808   0.971
   18CHTO    C6 7594   9.807   6.734   0.863
   18CHTO   H19 7595   9.786   6.775   0.764
   18CHTO    C8 7596   9.962   6.732   0.883
   18CHTO   H21 7597   9.983   6.698   0.985
   18CHTO    O7 7598   0.009   6.868   0.868
   18CHTO    H2 7599   0.101   6.872   0.886
   18CHTO   C12 7600   0.032   6.634   0.780
   18CHTO   H25 7601   0.018   6.680   0.679
   18CHTO    N3 7602   0.180   6.625   0.804
   18CHTO   H12 7603   0.225   6.561   0.730
   18CHTO   H13 7604   0.199   6.588   0.903
   18CHTO   C15 7605   9.960   6.495   0.782
   18CHTO   H28 7606   9.979   6.440   0.875
   18CHTO   O10 7607   9.999   6.407   0.663
   18CHTO    H4 7608   0.089   6.385   0.669
   18CHTO    O5 7609   9.818   6.509   0.762
   18CHTO   C10 7610   9.753   6.588   0.864
   18CHTO   H23 7611   9.773   6.542   0.961
   18CHTO   C17 7612   9.602   6.584   0.841
   18CHTO   O12 7613   9.550   6.452   0.864
   18CHTO    H6 7614   9.457   6.453   0.851
   19CHTO  H203 7615   6.500   4.947   0.876
   19CHTO   O82 7616   6.417   4.966   0.837
   19CHTO  C123 7617   6.423   4.942   0.695
   19CHTO  H227 7618   6.450   4.837   0.678
   19CHTO   O77 7619   6.285   4.966   0.653
   19CHTO  C118 7620   6.261   4.938   0.515
   19CHTO  H222 7621   6.291   4.835   0.492
   19CHTO  C125 7622   6.107   4.954   0.487
   19CHTO   O84 7623   6.033   4.853   0.557
   19CHTO  H205 7624   5.941   4.863   0.538
   19CHTO  C114 7625   6.344   5.035   0.428
   19CHTO  H218 7626   6.311   5.137   0.448
   19CHTO  C116 7627   6.496   5.027   0.463
   19CHTO  H220 7628   6.536   4.929   0.427
   19CHTO   O79 7629   6.565   5.129   0.388
   19CHTO  H201 7630   6.658   5.122   0.403
   19CHTO  C120 7631   6.519   5.041   0.618
   19CHTO  H224 7632   6.493   5.146   0.644
   19CHTO   N21 7633   6.661   5.021   0.655
   19CHTO  H211 7634   6.681   4.916   0.674
   19CHTO  H212 7635   6.686   5.080   0.742
   19CHTO   O75 7636   6.313   4.997   0.293
   19CHTO  C112 7637   6.327   5.111   0.181
   19CHTO  H216 7638   6.432   5.145   0.175
   19CHTO   O73 7639   6.239   5.219   0.218
   19CHTO  C113 7640   6.238   5.328   0.124
   19CHTO  H217 7641   6.342   5.363   0.107
   19CHTO  C124 7642   6.159   5.445   0.184
   19CHTO   O83 7643   6.221   5.497   0.302
   19CHTO  H204 7644   6.171   5.570   0.334
   19CHTO  C109 7645   6.177   5.279   9.990
   19CHTO  H213 7646   6.075   5.243   0.013
   19CHTO  C110 7647   6.264   5.161   9.935
   19CHTO  H214 7648   6.360   5.202   9.904
   19CHTO   O78 7649   6.200   5.107   9.818
   19CHTO  H200 7650   6.255   5.042   9.777
   19CHTO  C111 7651   6.283   5.050   0.042
   19CHTO  H215 7652   6.187   5.000   0.058
   19CHTO   N19 7653   6.379   4.945   9.999
   19CHTO  H207 7654   6.386   4.868   0.075
   19CHTO  H208 7655   6.477   4.988   9.982
   19CHTO   O74 7656   6.168   5.389   9.896
   19CHTO  C115 7657   6.049   5.374   9.790
   19CHTO  H219 7658   5.989   5.284   9.810
   19CHTO   O76 7659   5.949   5.492   9.798
   19CHTO  C122 7660   6.009   5.621   9.782
   19CHTO  H226 7661   6.044   5.653   9.881
   19CHTO  C126 7662   5.898   5.724   9.742
   19CHTO   O85 7663   5.832   5.687   9.620
   19CHTO  H206 7664   5.781   5.609   9.634
   19CHTO  C121 7665   6.129   5.625   9.678
   19CHTO  H225 7666   6.122   5.719   9.619
   19CHTO   O81 7667   6.252   5.632   9.751
   19CHTO  H202 7668   6.257   5.712   9.800
   19CHTO  C119 7669   6.122   5.504   9.578
   19CHTO  H223 7670   6.026   5.520   9.527
   19CHTO  C117 7671   6.116   5.363   9.648
   19CHTO  H221 7672   6.214   5.319   9.668
   19CHTO   N20 7673   6.047   5.263   9.561
   19CHTO  H209 7674   6.097   5.255   9.466
   19CHTO  H210 7675   5.944   5.291   9.546
   19CHTO   O80 7676   6.221   5.508   9.457
   19CHTO  C103 7677   6.364   5.565   9.475
   19CHTO  H190 7678   6.361   5.659   9.530
   19CHTO  C101 7679   6.473   5.472   9.543
   19CHTO  H188 7680   6.484   5.380   9.485
   19CHTO   O68 7681   6.432   5.434   9.687
   19CHTO  H168 7682   6.495   5.375   9.724
   19CHTO   C99 7683   6.613   5.551   9.541
   19CHTO  H186 7684   6.601   5.647   9.593
   19CHTO   N17 7685   6.727   5.480   9.608
   19CHTO  H174 7686   6.748   5.387   9.557
   19CHTO  H175 7687   6.703   5.463   9.712
   19CHTO   C97 7688   6.646   5.587   9.393
   19CHTO  H184 7689   6.663   5.493   9.337
   19CHTO   O64 7690   6.539   5.665   9.337
   19CHTO  C104 7691   6.413   5.598   9.330
   19CHTO  H191 7692   6.420   5.505   9.272
   19CHTO  C108 7693   6.313   5.687   9.254
   19CHTO   O71 7694   6.355   5.708   9.119
   19CHTO  H171 7695   6.294   5.765   9.076
   19CHTO   O62 7696   6.760   5.674   9.383
   19CHTO   C91 7697   6.835   5.668   9.260
   19CHTO  H178 7698   6.855   5.563   9.239
   19CHTO   C92 7699   6.973   5.736   9.287
   19CHTO  H179 7700   7.020   5.690   9.375
   19CHTO   O66 7701   7.060   5.704   9.177
   19CHTO  H166 7702   7.148   5.733   9.195
   19CHTO   C93 7703   6.963   5.893   9.299
   19CHTO  H180 7704   7.061   5.934   9.269
   19CHTO   N16 7705   6.942   5.940   9.438
   19CHTO  H172 7706   6.849   5.901   9.477
   19CHTO  H173 7707   6.942   6.048   9.441
   19CHTO   C94 7708   6.853   5.950   9.201
   19CHTO  H181 7709   6.757   5.965   9.252
   19CHTO   O61 7710   6.829   5.858   9.093
   19CHTO   C95 7711   6.763   5.738   9.135
   19CHTO  H182 7712   6.660   5.762   9.161
   19CHTO  C106 7713   6.754   5.640   9.013
   19CHTO   O69 7714   6.674   5.697   8.909
   19CHTO  H169 7715   6.669   5.637   8.837
   19CHTO   O63 7716   6.902   6.080   9.144
   19CHTO   C96 7717   6.789   6.173   9.087
   19CHTO  H183 7718   6.711   6.181   9.163
   19CHTO   C98 7719   6.723   6.121   8.955
   19CHTO  H185 7720   6.679   6.021   8.970
   19CHTO   O67 7721   6.612   6.207   8.923
   19CHTO  H167 7722   6.565   6.173   8.849
   19CHTO  C102 7723   6.827   6.122   8.832
   19CHTO  H189 7724   6.768   6.147   8.742
   19CHTO   N18 7725   6.892   5.992   8.803
   19CHTO  H176 7726   6.816   5.919   8.776
   19CHTO  H177 7727   6.947   5.958   8.889
   19CHTO  C105 7728   6.933   6.235   8.853
   19CHTO  H192 7729   7.018   6.196   8.908
   19CHTO   O65 7730   6.879   6.346   8.927
   19CHTO  C100 7731   6.857   6.315   9.066
   19CHTO  H187 7732   6.955   6.315   9.114
   19CHTO  C107 7733   6.777   6.431   9.132
   19CHTO   O70 7734   6.651   6.455   9.068
   19CHTO  H170 7735   6.607   6.526   9.112
   19CHTO   O57 7736   6.978   6.278   8.710
   19CHTO   C85 7737   7.079   6.379   8.692
   19CHTO  H157 7738   7.028   6.476   8.707
   19CHTO   C83 7739   7.124   6.376   8.543
   19CHTO  H155 7740   7.035   6.387   8.480
   19CHTO   O56 7741   7.178   6.245   8.514
   19CHTO  H135 7742   7.112   6.179   8.522
   19CHTO   C81 7743   7.220   6.495   8.515
   19CHTO  H153 7744   7.161   6.587   8.521
   19CHTO   N14 7745   7.266   6.496   8.374
   19CHTO  H141 7746   7.182   6.491   8.307
   19CHTO  H142 7747   7.330   6.412   8.356
   19CHTO   C79 7748   7.334   6.505   8.626
   19CHTO  H151 7749   7.310   6.592   8.688
   19CHTO   O52 7750   7.335   6.388   8.715
   19CHTO   C86 7751   7.208   6.365   8.784
   19CHTO  H158 7752   7.219   6.261   8.821
   19CHTO   C90 7753   7.198   6.455   8.910
   19CHTO   O60 7754   7.303   6.426   9.003
   19CHTO  H138 7755   7.294   6.482   9.078
   19CHTO   O50 7756   7.468   6.527   8.581
   19CHTO   C73 7757   7.588   6.542   8.659
   19CHTO  H145 7758   7.606   6.452   8.719
   19CHTO   C74 7759   7.576   6.664   8.756
   19CHTO  H146 7760   7.486   6.649   8.819
   19CHTO   O54 7761   7.688   6.660   8.845
   19CHTO  H133 7762   7.681   6.729   8.909
   19CHTO   C75 7763   7.567   6.798   8.673
   19CHTO  H147 7764   7.473   6.797   8.615
   19CHTO   N13 7765   7.561   6.921   8.757
   19CHTO  H139 7766   7.475   6.917   8.822
   19CHTO  H140 7767   7.552   7.008   8.693
   19CHTO   C76 7768   7.687   6.804   8.569
   19CHTO  H148 7769   7.780   6.812   8.626
   19CHTO   O49 7770   7.692   6.684   8.486
   19CHTO   C77 7771   7.709   6.563   8.563
   19CHTO  H149 7772   7.800   6.569   8.622
   19CHTO   C88 7773   7.727   6.445   8.467
   19CHTO   O58 7774   7.844   6.463   8.381
   19CHTO  H136 7775   7.852   6.389   8.323
   19CHTO   O51 7776   7.666   6.919   8.472
   19CHTO   C78 7777   7.789   6.961   8.397
   19CHTO  H150 7778   7.858   6.875   8.382
   19CHTO   C80 7779   7.863   7.073   8.473
   19CHTO  H152 7780   7.789   7.150   8.505
   19CHTO   O55 7781   7.920   7.015   8.593
   19CHTO  H134 7782   7.959   7.082   8.646
   19CHTO   C84 7783   7.974   7.143   8.384
   19CHTO  H156 7784   8.053   7.069   8.365
   19CHTO   N15 7785   8.039   7.259   8.453
   19CHTO  H143 7786   7.966   7.334   8.475
   19CHTO  H144 7787   8.115   7.301   8.391
   19CHTO   C87 7788   7.910   7.183   8.250
   19CHTO  H159 7789   7.829   7.255   8.269
   19CHTO   O53 7790   7.855   7.055   8.186
   19CHTO   C82 7791   7.742   7.006   8.258
   19CHTO  H154 7792   7.666   7.084   8.266
   19CHTO   C89 7793   7.679   6.890   8.179
   19CHTO   O59 7794   7.626   6.936   8.054
   19CHTO  H137 7795   7.583   6.865   8.010
   19CHTO   O45 7796   8.013   7.250   8.143
   19CHTO   C67 7797   7.959   7.255   8.009
   19CHTO  H124 7798   7.926   7.155   7.982
   19CHTO   C65 7799   7.835   7.352   8.000
   19CHTO  H122 7800   7.851   7.430   8.075
   19CHTO   O44 7801   7.719   7.274   8.037
   19CHTO  H102 7802   7.644   7.330   8.047
   19CHTO   C63 7803   7.827   7.428   7.862
   19CHTO  H120 7804   7.899   7.509   7.863
   19CHTO   N11 7805   7.699   7.502   7.835
   19CHTO  H108 7806   7.678   7.568   7.916
   19CHTO  H109 7807   7.619   7.432   7.824
   19CHTO   C61 7808   7.871   7.330   7.748
   19CHTO  H118 7809   7.871   7.388   7.655
   19CHTO   O40 7810   8.007   7.281   7.767
   19CHTO   C68 7811   8.066   7.295   7.901
   19CHTO  H125 7812   8.100   7.400   7.915
   19CHTO   C72 7813   8.193   7.206   7.905
   19CHTO   O48 7814   8.272   7.227   8.023
   19CHTO  H105 7815   8.347   7.170   8.020
   19CHTO   O38 7816   7.782   7.217   7.738
   19CHTO   C55 7817   7.763   7.162   7.606
   19CHTO  H112 7818   7.851   7.182   7.544
   19CHTO   C56 7819   7.630   7.221   7.542
   19CHTO  H113 7820   7.549   7.206   7.615
   19CHTO   O42 7821   7.644   7.363   7.525
   19CHTO  H100 7822   7.564   7.401   7.494
   19CHTO   C57 7823   7.596   7.150   7.405
   19CHTO  H114 7824   7.671   7.183   7.333
   19CHTO   N10 7825   7.463   7.189   7.350
   19CHTO  H106 7826   7.421   7.110   7.291
   19CHTO  H107 7827   7.473   7.278   7.289
   19CHTO   C58 7828   7.608   6.995   7.420
   19CHTO  H115 7829   7.522   6.958   7.482
   19CHTO   O37 7830   7.732   6.957   7.481
   19CHTO   C59 7831   7.750   7.008   7.614
   19CHTO  H116 7832   7.665   6.980   7.677
   19CHTO   C70 7833   7.876   6.946   7.675
   19CHTO   O46 7834   7.863   6.804   7.693
   19CHTO  H103 7835   7.941   6.771   7.734
   19CHTO   O39 7836   7.604   6.927   7.274
   19CHTO   C60 7837   7.619   6.784   7.269
   19CHTO  H117 7838   7.703   6.755   7.332
   19CHTO   C62 7839   7.492   6.709   7.321
   19CHTO  H119 7840   7.485   6.732   7.430
   19CHTO   O43 7841   7.376   6.760   7.254
   19CHTO  H101 7842   7.298   6.720   7.290
   19CHTO   C66 7843   7.513   6.550   7.301
   19CHTO  H123 7844   7.603   6.520   7.354
   19CHTO   N12 7845   7.405   6.469   7.361
   19CHTO  H110 7846   7.310   6.495   7.317
   19CHTO  H111 7847   7.403   6.483   7.468
   19CHTO   C69 7848   7.534   6.521   7.150
   19CHTO  H126 7849   7.448   6.560   7.092
   19CHTO   O41 7850   7.664   6.593   7.107
   19CHTO   C64 7851   7.655   6.745   7.123
   19CHTO  H121 7852   7.578   6.785   7.054
   19CHTO   C71 7853   7.791   6.808   7.085
   19CHTO   O47 7854   7.828   6.775   6.951
   19CHTO  H104 7855   7.911   6.813   6.931
   19CHTO   O34 7856   7.549   6.370   7.119
   19CHTO   C49 7857   7.542   6.297   6.986
   19CHTO   H91 7858   7.440   6.308   6.948
   19CHTO   C47 7859   7.574   6.149   7.012
   19CHTO   H89 7860   7.562   6.098   6.913
   19CHTO   O33 7861   7.480   6.092   7.105
   19CHTO   H70 7862   7.394   6.091   7.067
   19CHTO   C45 7863   7.726   6.133   7.068
   19CHTO   H87 7864   7.723   6.141   7.178
   19CHTO    N8 7865   7.777   5.998   7.033
   19CHTO   H75 7866   7.711   5.922   7.072
   19CHTO   H76 7867   7.876   5.985   7.073
   19CHTO   C43 7868   7.817   6.258   7.020
   19CHTO   H85 7869   7.798   6.337   7.093
   19CHTO   O29 7870   7.778   6.298   6.887
   19CHTO   C50 7871   7.644   6.351   6.880
   19CHTO   H92 7872   7.649   6.460   6.890
   19CHTO   C54 7873   7.590   6.331   6.736
   19CHTO   O36 7874   7.669   6.403   6.640
   19CHTO   H72 7875   7.634   6.390   6.554
   19CHTO   O27 7876   7.958   6.235   7.029
   19CHTO   C37 7877   8.069   6.313   6.983
   19CHTO   H79 7878   8.052   6.347   6.880
   19CHTO   C38 7879   8.089   6.441   7.070
   19CHTO   H80 7880   8.090   6.411   7.176
   19CHTO   O31 7881   7.976   6.526   7.046
   19CHTO   H68 7882   7.978   6.600   7.104
   19CHTO   C39 7883   8.225   6.515   7.036
   19CHTO   H81 7884   8.217   6.553   6.934
   19CHTO    N7 7885   8.252   6.633   7.125
   19CHTO   H73 7886   8.344   6.681   7.096
   19CHTO   H74 7887   8.258   6.601   7.228
   19CHTO   C40 7888   8.344   6.411   7.037
   19CHTO   H82 7889   8.360   6.374   7.138
   19CHTO   O26 7890   8.311   6.305   6.945
   19CHTO   C41 7891   8.197   6.225   6.986
   19CHTO   H83 7892   8.213   6.187   7.088
   19CHTO   C52 7893   8.186   6.104   6.891
   19CHTO   O35 7894   8.304   6.016   6.899
   19CHTO   H71 7895   8.294   5.945   6.839
   19CHTO   O28 7896   8.469   6.466   6.989
   19CHTO   C42 7897   8.597   6.393   6.997
   19CHTO   H84 7898   8.663   6.452   6.933
   19CHTO   C44 7899   8.599   6.248   6.938
   19CHTO   H86 7900   8.527   6.187   6.993
   19CHTO   O32 7901   8.555   6.258   6.801
   19CHTO   H69 7902   8.546   6.173   6.763
   19CHTO   C48 7903   8.741   6.179   6.948
   19CHTO   H90 7904   8.807   6.227   6.876
   19CHTO    N9 7905   8.735   6.034   6.907
   19CHTO   H77 7906   8.669   5.979   6.973
   19CHTO   H78 7907   8.835   5.991   6.909
   19CHTO   C51 7908   8.802   6.197   7.091
   19CHTO   H93 7909   8.744   6.137   7.161
   19CHTO   O30 7910   8.799   6.336   7.127
   19CHTO   C46 7911   8.660   6.391   7.140
   19CHTO   H88 7912   8.602   6.327   7.206
   19CHTO   C53 7913   8.677   6.532   7.202
   19CHTO   O72 7914   8.553   6.581   7.252
   19CHTO  H199 7915   8.566   6.666   7.291
   19CHTO   O22 7916   8.941   6.159   7.093
   19CHTO   C31 7917   9.013   6.125   7.217
   19CHTO   H59 7918   9.113   6.090   7.185
   19CHTO   C29 7919   9.035   6.244   7.313
   19CHTO   H57 7920   8.936   6.283   7.341
   19CHTO   O21 7921   9.101   6.349   7.240
   19CHTO   H37 7922   9.189   6.324   7.218
   19CHTO   C27 7923   9.112   6.201   7.445
   19CHTO   H55 7924   9.213   6.167   7.416
   19CHTO    N5 7925   9.126   6.311   7.543
   19CHTO   H43 7926   9.028   6.345   7.575
   19CHTO   H44 7927   9.181   6.393   7.500
   19CHTO   C25 7928   9.039   6.078   7.507
   19CHTO   H53 7929   8.936   6.108   7.536
   19CHTO   O17 7930   9.030   5.972   7.409
   19CHTO   C32 7931   8.949   6.005   7.295
   19CHTO   H60 7932   8.849   6.033   7.328
   19CHTO   C36 7933   8.939   5.878   7.206
   19CHTO   O25 7934   8.870   5.773   7.275
   19CHTO   H40 7935   8.864   5.698   7.219
   19CHTO   O15 7936   9.114   6.019   7.635
   19CHTO   C19 7937   9.049   5.925   7.726
   19CHTO   H47 7938   9.127   5.904   7.801
   19CHTO   C20 7939   8.924   5.985   7.800
   19CHTO   H48 7940   8.849   6.022   7.729
   19CHTO   O19 7941   8.972   6.097   7.876
   19CHTO   H35 7942   8.900   6.142   7.916
   19CHTO   C21 7943   8.854   5.878   7.894
   19CHTO   H49 7944   8.923   5.853   7.975
   19CHTO    N4 7945   8.730   5.929   7.956
   19CHTO   H41 7946   8.687   5.854   8.022
   19CHTO   H42 7947   8.657   5.955   7.880
   19CHTO   C22 7948   8.831   5.748   7.812
   19CHTO   H50 7949   8.761   5.770   7.731
   19CHTO   O14 7950   8.956   5.702   7.759
   19CHTO   C23 7951   9.012   5.789   7.660
   19CHTO   H51 7952   8.938   5.801   7.580
   19CHTO   C34 7953   9.135   5.720   7.599
   19CHTO   O23 7954   9.099   5.602   7.528
   19CHTO   H38 7955   9.175   5.562   7.491
   19CHTO   O16 7956   8.781   5.640   7.893
   19CHTO   C24 7957   8.741   5.513   7.805
   19CHTO   H52 7958   8.782   5.518   7.704
   19CHTO   C26 7959   8.588   5.501   7.797
   19CHTO   H54 7960   8.546   5.502   7.901
   19CHTO   O20 7961   8.539   5.617   7.727
   19CHTO   H36 7962   8.445   5.618   7.727
   19CHTO   C30 7963   8.545   5.369   7.727
   19CHTO   H58 7964   8.574   5.372   7.620
   19CHTO    N6 7965   8.397   5.351   7.729
   19CHTO   H45 7966   8.362   5.344   7.830
   19CHTO   H46 7967   8.370   5.260   7.676
   19CHTO   C33 7968   8.620   5.247   7.789
   19CHTO   H61 7969   8.587   5.232   7.893
   19CHTO   O18 7970   8.762   5.274   7.791
   19CHTO   C28 7971   8.800   5.386   7.871
   19CHTO   H56 7972   8.762   5.377   7.972
   19CHTO   C35 7973   8.954   5.393   7.876
   19CHTO   O24 7974   9.012   5.280   7.943
   19CHTO   H39 7975   9.105   5.288   7.943
   19CHTO    O9 7976   8.591   5.125   7.720
   19CHTO   C13 7977   8.671   5.000   7.778
   19CHTO   H26 7978   8.706   5.025   7.881
   19CHTO   C11 7979   8.793   4.968   7.681
   19CHTO   H24 7980   8.872   5.043   7.699
   19CHTO    O8 7981   8.751   4.980   7.543
   19CHTO    H3 7982   8.825   4.970   7.486
   19CHTO    C9 7983   8.846   4.826   7.714
   19CHTO   H22 7984   8.869   4.829   7.822
   19CHTO    N2 7985   8.978   4.797   7.651
   19CHTO   H10 7986   9.049   4.874   7.676
   19CHTO   H11 7987   8.966   4.790   7.544
   19CHTO    C7 7988   8.731   4.719   7.690
   19CHTO   H20 7989   8.741   4.650   7.776
   19CHTO    O4 7990   8.599   4.778   7.691
   19CHTO   C14 7991   8.577   4.873   7.795
   19CHTO   H27 7992   8.600   4.825   7.893
   19CHTO   C18 7993   8.425   4.905   7.796
   19CHTO   O13 7994   8.392   4.999   7.899
   19CHTO    H7 7995   8.300   5.017   7.897
   19CHTO    O2 7996   8.748   4.632   7.552
   19CHTO    C1 7997   8.636   4.556   7.505
   19CHTO   H14 7998   8.552   4.626   7.481
   19CHTO    C2 7999   8.581   4.445   7.606
   19CHTO   H15 8000   8.670   4.391   7.642
   19CHTO    O6 8001   8.517   4.510   7.718
   19CHTO    H1 8002   8.494   4.446   7.783
   19CHTO    C3 8003   8.479   4.344   7.534
   19CHTO   H16 8004   8.385   4.398   7.512
   19CHTO    N1 8005   8.443   4.229   7.623
   19CHTO    H8 8006   8.532   4.172   7.648
   19CHTO    H9 8007   8.371   4.165   7.574
   19CHTO    C4 8008   8.536   4.298   7.395
   19CHTO   H17 8009   8.624   4.236   7.411
   19CHTO    O1 8010   8.570   4.413   7.316
   19CHTO    C5 8011   8.678   4.489   7.372
   19CHTO   H18 8012   8.762   4.423   7.393
   19CHTO   C16 8013   8.723   4.593   7.267
   19CHTO   O11 8014   8.779   4.528   7.152
   19CHTO    H5 8015   8.807   4.593   7.090
   19CHTO    O3 8016   8.438   4.223   7.319
   19CHTO    C6 8017   8.482   4.169   7.190
   19CHTO   H19 8018   8.565   4.226   7.147
   19CHTO    C8 8019   8.528   4.020   7.203
   19CHTO   H21 8020   8.447   3.964   7.252
   19CHTO    O7 8021   8.645   4.019   7.287
   19CHTO    H2 8022   8.672   3.930   7.303
   19CHTO   C12 8023   8.556   3.957   7.061
   19CHTO   H25 8024   8.645   4.011   7.020
   19CHTO    N3 8025   8.594   3.812   7.071
   19CHTO   H12 8026   8.616   3.773   6.973
   19CHTO   H13 8027   8.513   3.756   7.115
   19CHTO   C15 8028   8.434   3.984   6.966
   19CHTO   H28 8029   8.346   3.927   6.996
   19CHTO   O10 8030   8.466   3.956   6.820
   19CHTO    H4 8031   8.484   3.865   6.808
   19CHTO    O5 8032   8.402   4.124   6.961
   19CHTO   C10 8033   8.365   4.179   7.089
   19CHTO   H23 8034   8.278   4.124   7.127
   19CHTO   C17 8035   8.321   4.325   7.068
   19CHTO   O12 8036   8.202   4.332   6.989
   19CHTO    H6 8037   8.175   4.422   6.980
   20CHTO  H203 8038   9.847   3.401   0.090
   20CHTO   O82 8039   9.891   3.334   0.140
   20CHTO  C123 8040   9.948   3.236   0.052
   20CHTO  H227 8041   0.021   3.285   9.986
   20CHTO   O77 8042   0.015   3.144   0.143
   20CHTO  C118 8043   0.091   3.041   0.077
   20CHTO  H222 8044   0.167   3.086   0.012
   20CHTO  C125 8045   0.163   2.954   0.186
   20CHTO   O84 8046   0.261   3.030   0.257
   20CHTO  H205 8047   0.301   2.976   0.323
   20CHTO  C114 8048   9.996   2.952   9.993
   20CHTO  H218 8049   9.927   2.903   0.061
   20CHTO  C116 8050   9.911   3.036   9.893
   20CHTO  H220 8051   9.977   3.074   9.812
   20CHTO   O79 8052   9.816   2.947   9.831
   20CHTO  H201 8053   9.767   2.993   9.766
   20CHTO  C120 8054   9.840   3.157   9.968
   20CHTO  H224 8055   9.765   3.112   0.036
   20CHTO   N21 8056   9.767   3.244   9.872
   20CHTO  H211 8057   9.832   3.321   9.834
   20CHTO  H212 8058   9.681   3.287   9.920
   20CHTO   O75 8059   0.084   2.857   9.931
   20CHTO  C112 8060   0.021   2.708   9.901
   20CHTO  H216 8061   9.953   2.715   9.814
   20CHTO   O73 8062   9.951   2.664   0.019
   20CHTO  C113 8063   9.887   2.537   0.005
   20CHTO  H217 8064   9.820   2.539   9.916
   20CHTO  C124 8065   9.799   2.512   0.128
   20CHTO   O83 8066   9.693   2.607   0.138
   20CHTO  H204 8067   9.640   2.587   0.213
   20CHTO  C109 8068   9.994   2.426   9.986
   20CHTO  H213 8069   0.057   2.427   0.076
   20CHTO  C110 8070   0.080   2.461   9.859
   20CHTO  H214 8071   0.017   2.452   9.771
   20CHTO   O78 8072   0.186   2.364   9.847
   20CHTO  H200 8073   0.233   2.378   9.767
   20CHTO  C111 8074   0.137   2.606   9.869
   20CHTO  H215 8075   0.208   2.610   9.954
   20CHTO   N19 8076   0.213   2.648   9.749
   20CHTO  H207 8077   0.252   2.748   9.763
   20CHTO  H208 8078   0.148   2.647   9.662
   20CHTO   O74 8079   9.929   2.296   9.975
   20CHTO  C115 8080   0.021   2.173   0.022
   20CHTO  H219 8081   0.121   2.206   0.051
   20CHTO   O76 8082   9.963   2.102   0.149
   20CHTO  C122 8083   9.829   2.053   0.134
   20CHTO  H226 8084   9.762   2.136   0.157
   20CHTO  C126 8085   9.804   1.945   0.245
   20CHTO   O85 8086   9.892   1.833   0.237
   20CHTO  H206 8087   9.980   1.860   0.255
   20CHTO  C121 8088   9.795   1.994   9.990
   20CHTO  H225 8089   9.733   1.903   0.002
   20CHTO   O81 8090   9.715   2.088   9.917
   20CHTO  H202 8091   9.633   2.101   9.961
   20CHTO  C119 8092   9.927   1.955   9.914
   20CHTO  H223 8093   9.972   1.881   9.981
   20CHTO  C117 8094   0.030   2.074   9.899
   20CHTO  H221 8095   0.014   2.138   9.813
   20CHTO   N20 8096   0.168   2.020   9.880
   20CHTO  H209 8097   0.171   1.956   9.793
   20CHTO  H210 8098   0.199   1.965   9.968
   20CHTO   O80 8099   9.907   1.869   9.783
   20CHTO  C103 8100   9.808   1.918   9.668
   20CHTO  H190 8101   9.707   1.931   9.707
   20CHTO  C101 8102   9.848   2.048   9.586
   20CHTO  H188 8103   9.954   2.040   9.558
   20CHTO   O68 8104   9.829   2.174   9.673
   20CHTO  H168 8105   9.861   2.250   9.628
   20CHTO   C99 8106   9.760   2.064   9.453
   20CHTO  H186 8107   9.657   2.093   9.484
   20CHTO   N17 8108   9.808   2.172   9.361
   20CHTO  H174 8109   9.906   2.147   9.322
   20CHTO  H175 8110   9.810   2.267   9.413
   20CHTO   C97 8111   9.743   1.929   9.377
   20CHTO  H184 8112   9.834   1.907   9.318
   20CHTO   O64 8113   9.709   1.821   9.466
   20CHTO  C104 8114   9.805   1.796   9.569
   20CHTO  H191 8115   9.905   1.781   9.528
   20CHTO  C108 8116   9.768   1.665   9.640
   20CHTO   O71 8117   9.776   1.554   9.549
   20CHTO  H171 8118   9.753   1.475   9.595
   20CHTO   O62 8119   9.628   1.937   9.292
   20CHTO   C91 8120   9.626   1.867   9.167
   20CHTO  H178 8121   9.706   1.910   9.106
   20CHTO   C92 8122   9.491   1.906   9.099
   20CHTO  H179 8123   9.482   2.016   9.095
   20CHTO   O66 8124   9.498   1.864   8.961
   20CHTO  H166 8125   9.422   1.893   8.914
   20CHTO   C93 8126   9.367   1.837   9.168
   20CHTO  H180 8127   9.286   1.835   9.093
   20CHTO   N16 8128   9.311   1.915   9.282
   20CHTO  H172 8129   9.385   1.926   9.359
   20CHTO  H173 8130   9.223   1.866   9.320
   20CHTO   C94 8131   9.400   1.689   9.211
   20CHTO  H181 8132   9.422   1.680   9.317
   20CHTO   O61 8133   9.516   1.641   9.141
   20CHTO   C95 8134   9.639   1.708   9.173
   20CHTO  H182 8135   9.670   1.677   9.273
   20CHTO  C106 8136   9.749   1.657   9.075
   20CHTO   O69 8137   9.772   1.516   9.092
   20CHTO  H169 8138   9.838   1.488   9.032
   20CHTO   O63 8139   9.276   1.599   9.174
   20CHTO   C96 8140   9.287   1.447   9.218
   20CHTO  H183 8141   9.316   1.445   9.323
   20CHTO   C98 8142   9.390   1.363   9.136
   20CHTO  H185 8143   9.491   1.407   9.142
   20CHTO   O67 8144   9.403   1.234   9.199
   20CHTO  H167 8145   9.470   1.184   9.158
   20CHTO  C102 8146   9.342   1.344   8.984
   20CHTO  H189 8147   9.398   1.256   8.947
   20CHTO   N18 8148   9.377   1.455   8.892
   20CHTO  H176 8149   9.485   1.466   8.887
   20CHTO  H177 8150   9.332   1.547   8.926
   20CHTO  C105 8151   9.190   1.312   8.981
   20CHTO  H192 8152   9.134   1.400   8.947
   20CHTO   O65 8153   9.135   1.275   9.108
   20CHTO  C100 8154   9.141   1.384   9.203
   20CHTO  H187 8155   9.073   1.462   9.165
   20CHTO  C107 8156   9.081   1.338   9.339
   20CHTO   O70 8157   9.150   1.224   9.392
   20CHTO  H170 8158   9.110   1.199   9.473
   20CHTO   O57 8159   9.177   1.198   8.874
   20CHTO   C85 8160   9.050   1.155   8.824
   20CHTO  H157 8161   9.010   1.082   8.897
   20CHTO   C83 8162   9.076   1.075   8.692
   20CHTO  H155 8163   9.146   0.994   8.715
   20CHTO   O56 8164   9.144   1.161   8.597
   20CHTO  H135 8165   9.229   1.185   8.630
   20CHTO   C81 8166   8.943   1.014   8.641
   20CHTO  H153 8167   8.910   0.940   8.714
   20CHTO   N14 8168   8.964   0.930   8.519
   20CHTO  H141 8169   9.040   0.857   8.537
   20CHTO  H142 8170   8.994   0.992   8.437
   20CHTO   C79 8171   8.829   1.126   8.630
   20CHTO  H151 8172   8.754   1.100   8.705
   20CHTO   O52 8173   8.878   1.260   8.663
   20CHTO   C86 8174   8.945   1.271   8.792
   20CHTO  H158 8175   8.996   1.369   8.785
   20CHTO   C90 8176   8.841   1.284   8.907
   20CHTO   O60 8177   8.760   1.401   8.891
   20CHTO  H138 8178   8.698   1.406   8.961
   20CHTO   O50 8179   8.758   1.136   8.506
   20CHTO   C73 8180   8.649   1.222   8.467
   20CHTO  H145 8181   8.685   1.325   8.454
   20CHTO   C74 8182   8.536   1.221   8.575
   20CHTO  H146 8183   8.580   1.255   8.670
   20CHTO   O54 8184   8.437   1.319   8.538
   20CHTO  H133 8185   8.371   1.325   8.605
   20CHTO   C75 8186   8.477   1.075   8.587
   20CHTO  H147 8187   8.558   1.007   8.615
   20CHTO   N13 8188   8.373   1.061   8.691
   20CHTO  H139 8189   8.414   1.087   8.788
   20CHTO  H140 8190   8.339   0.958   8.695
   20CHTO   C76 8191   8.426   1.031   8.442
   20CHTO  H148 8192   8.346   1.100   8.414
   20CHTO   O49 8193   8.535   1.040   8.344
   20CHTO   C77 8194   8.591   1.172   8.331
   20CHTO  H149 8195   8.513   1.241   8.298
   20CHTO   C88 8196   8.697   1.171   8.221
   20CHTO   O58 8197   8.637   1.136   8.091
   20CHTO  H136 8198   8.704   1.136   8.025
   20CHTO   O51 8199   8.380   0.883   8.441
   20CHTO   C78 8200   8.329   0.829   8.301
   20CHTO  H150 8201   8.400   0.857   8.219
   20CHTO   C80 8202   8.189   0.886   8.265
   20CHTO  H152 8203   8.125   0.881   8.357
   20CHTO   O55 8204   8.207   1.024   8.230
   20CHTO  H134 8205   8.123   1.065   8.220
   20CHTO   C84 8206   8.119   0.806   8.147
   20CHTO  H156 8207   8.175   0.826   8.056
   20CHTO   N15 8208   7.979   0.854   8.123
   20CHTO  H143 8209   7.919   0.839   8.211
   20CHTO  H144 8210   7.935   0.800   8.042
   20CHTO   C87 8211   8.126   0.655   8.177
   20CHTO  H159 8212   8.072   0.633   8.269
   20CHTO   O53 8213   8.274   0.620   8.191
   20CHTO   C82 8214   8.329   0.676   8.311
   20CHTO  H154 8215   8.272   0.643   8.398
   20CHTO   C89 8216   8.473   0.623   8.328
   20CHTO   O59 8217   8.471   0.482   8.352
   20CHTO  H137 8218   8.559   0.451   8.360
   20CHTO   O45 8219   8.058   0.565   8.058
   20CHTO   C67 8220   8.120   0.438   8.030
   20CHTO  H124 8221   8.228   0.452   8.022
   20CHTO   C65 8222   8.092   0.332   8.143
   20CHTO  H122 8223   7.995   0.357   8.185
   20CHTO   O44 8224   8.194   0.352   8.242
   20CHTO  H102 8225   8.175   0.300   8.318
   20CHTO   C63 8226   8.076   0.185   8.086
   20CHTO  H120 8227   7.975   0.174   8.045
   20CHTO   N11 8228   8.078   0.073   8.187
   20CHTO  H108 8229   8.007   0.093   8.265
   20CHTO  H109 8230   8.176   0.065   8.229
   20CHTO   C61 8231   8.175   0.165   7.966
   20CHTO  H118 8232   8.156   0.065   7.925
   20CHTO   O40 8233   8.150   0.260   7.858
   20CHTO   C68 8234   8.075   0.382   7.890
   20CHTO  H125 8235   7.967   0.359   7.890
   20CHTO   C72 8236   8.099   0.485   7.776
   20CHTO   O48 8237   8.010   0.597   7.781
   20CHTO  H105 8238   8.029   0.654   7.709
   20CHTO   O38 8239   8.312   0.178   8.010
   20CHTO   C55 8240   8.411   0.121   7.923
   20CHTO  H112 8241   8.371   0.107   7.821
   20CHTO   C56 8242   8.464   9.985   7.984
   20CHTO  H113 8243   8.498   0.006   8.086
   20CHTO   O42 8244   8.355   9.891   7.995
   20CHTO  H100 8245   8.383   9.813   8.038
   20CHTO   C57 8246   8.582   9.926   7.896
   20CHTO  H114 8247   8.537   9.890   7.803
   20CHTO   N10 8248   8.649   9.810   7.960
   20CHTO  H106 8249   8.752   9.802   7.930
   20CHTO  H107 8250   8.598   9.718   7.933
   20CHTO   C58 8251   8.685   0.037   7.861
   20CHTO  H115 8252   8.747   0.060   7.951
   20CHTO   O37 8253   8.623   0.159   7.814
   20CHTO   C59 8254   8.532   0.217   7.908
   20CHTO  H116 8255   8.581   0.231   8.005
   20CHTO   C70 8256   8.487   0.355   7.857
   20CHTO   O46 8257   8.595   0.449   7.858
   20CHTO  H103 8258   8.564   0.532   7.828
   20CHTO   O39 8259   8.777   9.984   7.741
   20CHTO   C60 8260   8.885   0.068   7.696
   20CHTO  H117 8261   8.843   0.161   7.657
   20CHTO   C62 8262   8.987   0.103   7.808
   20CHTO  H119 8263   8.934   0.168   7.880
   20CHTO   O43 8264   9.028   9.982   7.874
   20CHTO  H101 8265   9.085   0.002   7.946
   20CHTO   C66 8266   9.111   0.185   7.745
   20CHTO  H123 8267   9.072   0.273   7.694
   20CHTO   N12 8268   9.204   0.235   7.848
   20CHTO  H110 8269   9.245   0.152   7.905
   20CHTO  H111 8270   9.154   0.305   7.913
   20CHTO   C69 8271   9.179   0.095   7.638
   20CHTO  H126 8272   9.209   9.998   7.683
   20CHTO   O41 8273   9.074   0.070   7.525
   20CHTO   C64 8274   8.953   9.995   7.577
   20CHTO  H121 8275   8.985   9.896   7.612
   20CHTO   C71 8276   8.853   9.974   7.461
   20CHTO   O47 8277   8.906   9.885   7.363
   20CHTO  H104 8278   8.844   9.875   7.292
   20CHTO   O34 8279   9.305   0.160   7.575
   20CHTO   C49 8280   9.417   0.088   7.497
   20CHTO   H91 8281   9.466   0.019   7.566
   20CHTO   C47 8282   9.517   0.196   7.449
   20CHTO   H89 8283   9.599   0.139   7.400
   20CHTO   O33 8284   9.572   0.268   7.561
   20CHTO   H70 8285   9.623   0.211   7.615
   20CHTO   C45 8286   9.446   0.298   7.345
   20CHTO   H87 8287   9.405   0.383   7.402
   20CHTO    N8 8288   9.549   0.351   7.252
   20CHTO   H75 8289   9.629   0.399   7.308
   20CHTO   H76 8290   9.505   0.423   7.185
   20CHTO   C43 8291   9.319   0.227   7.276
   20CHTO   H85 8292   9.238   0.238   7.349
   20CHTO   O29 8293   9.349   0.089   7.250
   20CHTO   C50 8294   9.366   0.011   7.370
   20CHTO   H92 8295   9.270   9.965   7.395
   20CHTO   C54 8296   9.457   9.889   7.338
   20CHTO   O36 8297   9.396   9.803   7.241
   20CHTO   H72 8298   9.455   9.732   7.222
   20CHTO   O27 8299   9.269   0.294   7.160
   20CHTO   C37 8300   9.165   0.255   7.068
   20CHTO   H79 8301   9.196   0.165   7.013
   20CHTO   C38 8302   9.032   0.221   7.143
   20CHTO   H80 8303   9.012   0.301   7.216
   20CHTO   O31 8304   9.053   0.098   7.214
   20CHTO   H68 8305   8.980   0.080   7.270
   20CHTO   C39 8306   8.909   0.207   7.045
   20CHTO   H81 8307   8.920   0.112   6.993
   20CHTO    N7 8308   8.777   0.200   7.118
   20CHTO   H73 8309   8.696   0.188   7.047
   20CHTO   H74 8310   8.762   0.290   7.176
   20CHTO   C40 8311   8.908   0.320   6.934
   20CHTO   H82 8312   8.877   0.415   6.977
   20CHTO   O26 8313   9.038   0.328   6.875
   20CHTO   C41 8314   9.141   0.370   6.968
   20CHTO   H83 8315   9.108   0.460   7.022
   20CHTO   C52 8316   9.268   0.406   6.888
   20CHTO   O35 8317   9.246   0.518   6.795
   20CHTO   H71 8318   9.325   0.535   6.747
   20CHTO   O28 8319   8.818   0.287   6.826
   20CHTO   C42 8320   8.794   0.373   6.710
   20CHTO   H84 8321   8.725   0.314   6.650
   20CHTO   C44 8322   8.918   0.402   6.618
   20CHTO   H86 8323   8.993   0.456   6.675
   20CHTO   O32 8324   8.971   0.274   6.579
   20CHTO   H69 8325   9.051   0.285   6.531
   20CHTO   C48 8326   8.881   0.491   6.493
   20CHTO   H90 8327   8.818   0.431   6.427
   20CHTO    N9 8328   9.002   0.527   6.410
   20CHTO   H77 8329   9.071   0.585   6.469
   20CHTO   H78 8330   8.971   0.583   6.323
   20CHTO   C51 8331   8.800   0.616   6.540
   20CHTO   H93 8332   8.867   0.679   6.600
   20CHTO   O30 8333   8.687   0.572   6.617
   20CHTO   C46 8334   8.723   0.507   6.744
   20CHTO   H88 8335   8.791   0.572   6.800
   20CHTO   C53 8336   8.590   0.489   6.821
   20CHTO   O72 8337   8.611   0.451   6.957
   20CHTO  H199 8338   8.528   0.446   7.001
   20CHTO   O22 8339   8.744   0.691   6.430
   20CHTO   C31 8340   8.693   0.828   6.447
   20CHTO   H59 8341   8.665   0.863   6.345
   20CHTO   C29 8342   8.566   0.840   6.534
   20CHTO   H57 8343   8.591   0.801   6.634
   20CHTO   O21 8344   8.465   0.753   6.479
   20CHTO   H37 8345   8.437   0.784   6.396
   20CHTO   C27 8346   8.517   0.989   6.549
   20CHTO   H55 8347   8.483   1.025   6.450
   20CHTO    N5 8348   8.404   1.004   6.645
   20CHTO   H43 8349   8.434   0.971   6.743
   20CHTO   H44 8350   8.319   0.947   6.610
   20CHTO   C25 8351   8.639   1.079   6.591
   20CHTO   H53 8352   8.673   1.047   6.692
   20CHTO   O17 8353   8.748   1.061   6.498
   20CHTO   C32 8354   8.802   0.928   6.497
   20CHTO   H60 8355   8.832   0.900   6.598
   20CHTO   C36 8356   8.927   0.927   6.406
   20CHTO   O25 8357   9.028   1.015   6.457
   20CHTO   H40 8358   9.102   1.014   6.400
   20CHTO   O15 8359   8.604   1.231   6.594
   20CHTO   C19 8360   8.687   1.330   6.662
   20CHTO   H47 8361   8.633   1.425   6.648
   20CHTO   C20 8362   8.705   1.305   6.815
   20CHTO   H48 8363   8.754   1.208   6.835
   20CHTO   O19 8364   8.572   1.299   6.870
   20CHTO   H35 8365   8.576   1.275   6.961
   20CHTO   C21 8366   8.791   1.419   6.882
   20CHTO   H49 8367   8.737   1.513   6.874
   20CHTO    N4 8368   8.815   1.395   7.028
   20CHTO   H41 8369   8.873   1.476   7.069
   20CHTO   H42 8370   8.869   1.302   7.042
   20CHTO   C22 8371   8.923   1.434   6.802
   20CHTO   H50 8372   8.981   1.343   6.812
   20CHTO   O14 8373   8.895   1.459   6.663
   20CHTO   C23 8374   8.827   1.350   6.597
   20CHTO   H51 8375   8.891   1.261   6.607
   20CHTO   C34 8376   8.816   1.383   6.448
   20CHTO   O23 8377   8.945   1.387   6.386
   20CHTO   H38 8378   8.936   1.407   6.295
   20CHTO   O16 8379   8.999   1.548   6.845
   20CHTO   C24 8380   9.149   1.547   6.792
   20CHTO   H52 8381   9.161   1.484   6.704
   20CHTO   C26 8382   9.242   1.496   6.904
   20CHTO   H54 8383   9.220   1.553   6.998
   20CHTO   O20 8384   9.211   1.357   6.929
   20CHTO   H36 8385   9.261   1.325   7.001
   20CHTO   C30 8386   9.393   1.516   6.868
   20CHTO   H58 8387   9.421   1.449   6.786
   20CHTO    N6 8388   9.482   1.480   6.982
   20CHTO   H45 8389   9.462   1.544   7.067
   20CHTO   H46 8390   9.585   1.490   6.954
   20CHTO   C33 8391   9.417   1.661   6.817
   20CHTO   H61 8392   9.401   1.733   6.899
   20CHTO   O18 8393   9.325   1.692   6.711
   20CHTO   C28 8394   9.187   1.691   6.750
   20CHTO   H56 8395   9.171   1.758   6.834
   20CHTO   C35 8396   9.100   1.738   6.631
   20CHTO   O24 8397   9.127   1.873   6.594
   20CHTO   H39 8398   9.072   1.897   6.522
   20CHTO    O9 8399   9.554   1.681   6.776
   20CHTO   C13 8400   9.587   1.833   6.734
   20CHTO   H26 8401   9.513   1.900   6.783
   20CHTO   C11 8402   9.582   1.846   6.575
   20CHTO   H24 8403   9.476   1.853   6.545
   20CHTO    O8 8404   9.638   1.728   6.514
   20CHTO    H3 8405   9.627   1.732   6.421
   20CHTO    C9 8406   9.657   1.975   6.535
   20CHTO   H22 8407   9.611   2.056   6.595
   20CHTO    N2 8408   9.632   2.017   6.394
   20CHTO   H10 8409   9.526   2.025   6.376
   20CHTO   H11 8410   9.676   1.945   6.326
   20CHTO    C7 8411   9.809   1.962   6.576
   20CHTO   H20 8412   9.838   2.066   6.602
   20CHTO    O4 8413   9.830   1.875   6.689
   20CHTO   C14 8414   9.729   1.879   6.791
   20CHTO   H27 8415   9.720   1.984   6.827
   20CHTO   C18 8416   9.779   1.794   6.911
   20CHTO   O13 8417   9.689   1.806   7.022
   20CHTO    H7 8418   9.721   1.753   7.093
   20CHTO    O2 8419   9.905   1.909   6.452
   20CHTO    C1 8420   0.042   1.879   6.485
   20CHTO   H14 8421   0.044   1.809   6.572
   20CHTO    C2 8422   0.130   2.006   6.519
   20CHTO   H15 8423   0.109   2.080   6.440
   20CHTO    O6 8424   0.089   2.059   6.647
   20CHTO    H1 8425   0.135   2.138   6.666
   20CHTO    C3 8426   0.287   1.971   6.521
   20CHTO   H16 8427   0.308   1.910   6.610
   20CHTO    N1 8428   0.371   2.094   6.532
   20CHTO    H8 8429   0.356   2.158   6.446
   20CHTO    H9 8430   0.476   2.067   6.539
   20CHTO    C4 8431   0.325   1.882   6.398
   20CHTO   H17 8432   0.317   1.942   6.307
   20CHTO    O1 8433   0.240   1.767   6.390
   20CHTO    C5 8434   0.102   1.801   6.365
   20CHTO   H18 8435   0.095   1.865   6.276
   20CHTO   C16 8436   0.025   1.669   6.337
   20CHTO   O11 8437   0.075   1.606   6.219
   20CHTO    H5 8438   0.024   1.528   6.202
   20CHTO    O3 8439   0.459   1.830   6.410
   20CHTO    C6 8440   0.515   1.766   6.291
   20CHTO   H19 8441   0.439   1.725   6.225
   20CHTO    C8 8442   0.602   1.867   6.210
   20CHTO   H21 8443   0.677   1.909   6.277
   20CHTO    O7 8444   0.514   1.971   6.163
   20CHTO    H2 8445   0.564   2.038   6.120
   20CHTO   C12 8446   0.677   1.793   6.091
   20CHTO   H25 8447   0.598   1.759   6.021
   20CHTO    N3 8448   0.765   1.888   6.015
   20CHTO   H12 8449   0.812   1.836   5.933
   20CHTO   H13 8450   0.840   1.930   6.080
   20CHTO   C15 8451   0.753   1.668   6.148
   20CHTO   H28 8452   0.838   1.697   6.210
   20CHTO   O10 8453   0.800   1.577   6.040
   20CHTO    H4 8454   0.863   1.620   5.987
   20CHTO    O5 8455   0.664   1.583   6.221
   20CHTO   C10 8456   0.605   1.646   6.336
   20CHTO   H23 8457   0.684   1.684   6.400
   20CHTO   C17 8458   0.526   1.542   6.416
   20CHTO   O12 8459   0.613   1.441   6.469
   20CHTO    H6 8460   0.563   1.378   6.516
   21GLOH   H03 8461   0.762   3.683   8.211
   21GLOH    O1 8462   0.730   3.682   8.117
   21GLOH    C1 8463   0.840   3.721   8.031
   21GLOH   H02 8464   0.801   3.757   7.936
   21GLOH   H08 8465   0.902   3.634   8.008
   21GLOH    C2 8466   0.931   3.830   8.091
   21GLOH   H04 8467   0.869   3.917   8.117
   21GLOH    O2 8468   1.000   3.782   8.209
   21GLOH   H05 8469   0.934   3.753   8.277
   21GLOH    C3 8470   1.036   3.876   7.988
   21GLOH   H06 8471   1.088   3.963   8.028
   21GLOH   H07 8472   0.985   3.908   7.897
   21GLOH    O3 8473   1.131   3.772   7.959
   21GLOH   H01 8474   1.146   3.727   8.045
   22GLOH   H03 8475   1.322   4.818   3.553
   22GLOH    O1 8476   1.253   4.866   3.501
   22GLOH    C1 8477   1.294   4.892   3.365
   22GLOH   H02 8478   1.205   4.907   3.303
   22GLOH   H08 8479   1.347   4.806   3.324
   22GLOH    C2 8480   1.384   5.016   3.353
   22GLOH   H04 8481   1.347   5.091   3.424
   22GLOH    O2 8482   1.522   4.986   3.386
   22GLOH   H05 8483   1.527   4.957   3.479
   22GLOH    C3 8484   1.371   5.079   3.212
   22GLOH   H06 8485   1.434   5.167   3.208
   22GLOH   H07 8486   1.268   5.113   3.201
   22GLOH    O3 8487   1.405   4.988   3.106
   22GLOH   H01 8488   1.368   5.025   3.022
   23GLOH   H03 8489   1.997   9.631   0.715
   23GLOH    O1 8490   2.008   9.551   0.658
   23GLOH    C1 8491   2.112   9.579   0.563
   23GLOH   H02 8492   2.140   9.489   0.509
   23GLOH   H08 8493   2.202   9.613   0.614
   23GLOH    C2 8494   2.070   9.687   0.462
   23GLOH   H04 8495   1.969   9.662   0.426
   23GLOH    O2 8496   2.066   9.817   0.523
   23GLOH   H05 8497   2.033   9.809   0.616
   23GLOH    C3 8498   2.164   9.684   0.340
   23GLOH   H06 8499   2.131   9.760   0.269
   23GLOH   H07 8500   2.153   9.587   0.290
   23GLOH    O3 8501   2.301   9.705   0.376
   23GLOH   H01 8502   2.313   9.802   0.393
   24GLOH   H03 8503   1.616   6.110   0.347
   24GLOH    O1 8504   1.533   6.060   0.324
   24GLOH    C1 8505   1.526   6.036   0.182
   24GLOH   H02 8506   1.437   6.084   0.141
   24GLOH   H08 8507   1.514   5.929   0.163
   24GLOH    C2 8508   1.648   6.086   0.102
   24GLOH   H04 8509   1.656   6.195   0.119
   24GLOH    O2 8510   1.770   6.024   0.149
   24GLOH   H05 8511   1.757   5.925   0.143
   24GLOH    C3 8512   1.628   6.064   9.951
   24GLOH   H06 8513   1.714   6.107   9.899
   24GLOH   H07 8514   1.541   6.122   9.920
   24GLOH    O3 8515   1.611   5.926   9.912
   24GLOH   H01 8516   1.656   5.867   9.978
   25GLOH   H03 8517   7.109   1.574   9.751
   25GLOH    O1 8518   7.092   1.578   9.654
   25GLOH    C1 8519   7.041   1.706   9.614
   25GLOH   H02 8520   7.068   1.783   9.686
   25GLOH   H08 8521   6.932   1.704   9.607
   25GLOH    C2 8522   7.100   1.747   9.477
   25GLOH   H04 8523   7.207   1.766   9.491
   25GLOH    O2 8524   7.084   1.637   9.384
   25GLOH   H05 8525   7.103   1.557   9.439
   25GLOH    C3 8526   7.036   1.876   9.423
   25GLOH   H06 8527   7.089   1.905   9.332
   25GLOH   H07 8528   7.054   1.955   9.495
   25GLOH    O3 8529   6.895   1.867   9.396
   25GLOH   H01 8530   6.874   1.775   9.365
   26GLOH   H03 8531   2.404   2.285   6.829
   26GLOH    O1 8532   2.339   2.211   6.823
   26GLOH    C1 8533   2.357   2.143   6.697
   26GLOH   H02 8534   2.287   2.060   6.689
   26GLOH   H08 8535   2.457   2.101   6.691
   26GLOH    C2 8536   2.336   2.237   6.576
   26GLOH   H04 8537   2.245   2.294   6.596
   26GLOH    O2 8538   2.445   2.331   6.562
   26GLOH   H05 8539   2.465   2.372   6.651
   26GLOH    C3 8540   2.311   2.156   6.448
   26GLOH   H06 8541   2.305   2.225   6.364
   26GLOH   H07 8542   2.213   2.109   6.457
   26GLOH    O3 8543   2.410   2.054   6.421
   26GLOH   H01 8544   2.492   2.096   6.387
   27GLOH   H03 8545   7.975   0.463   2.348
   27GLOH    O1 8546   7.964   0.540   2.410
   27GLOH    C1 8547   8.081   0.544   2.494
   27GLOH   H02 8548   8.111   0.444   2.523
   27GLOH   H08 8549   8.059   0.598   2.586
   27GLOH    C2 8550   8.200   0.614   2.424
   27GLOH   H04 8551   8.205   0.578   2.320
   27GLOH    O2 8552   8.182   0.757   2.424
   27GLOH   H05 8553   8.095   0.780   2.382
   27GLOH    C3 8554   8.333   0.576   2.493
   27GLOH   H06 8555   8.415   0.620   2.436
   27GLOH   H07 8556   8.345   0.468   2.488
   27GLOH    O3 8557   8.336   0.620   2.629
   27GLOH   H01 8558   8.295   0.709   2.629
   28GLOH   H03 8559   2.633   4.910   9.049
   28GLOH    O1 8560   2.707   4.933   8.988
   28GLOH    C1 8561   2.725   4.823   8.896
   28GLOH   H02 8562   2.640   4.755   8.900
   28GLOH   H08 8563   2.812   4.766   8.924
   28GLOH    C2 8564   2.742   4.869   8.750
   28GLOH   H04 8565   2.647   4.914   8.718
   28GLOH    O2 8566   2.846   4.967   8.739
   28GLOH   H05 8567   2.823   5.039   8.801
   28GLOH    C3 8568   2.770   4.749   8.658
   28GLOH   H06 8569   2.798   4.787   8.560
   28GLOH   H07 8570   2.678   4.692   8.645
   28GLOH    O3 8571   2.875   4.663   8.708
   28GLOH   H01 8572   2.951   4.723   8.732
   29GLOH   H03 8573   1.855   1.944   1.075
   29GLOH    O1 8574   1.836   2.041   1.065
   29GLOH    C1 8575   1.917   2.095   0.959
   29GLOH   H02 8576   2.006   2.034   0.944
   29GLOH   H08 8577   1.953   2.195   0.985
   29GLOH    C2 8578   1.841   2.105   0.825
   29GLOH   H04 8579   1.793   2.007   0.808
   29GLOH    O2 8580   1.738   2.205   0.827
   29GLOH   H05 8581   1.741   2.255   0.913
   29GLOH    C3 8582   1.939   2.126   0.707
   29GLOH   H06 8583   1.883   2.117   0.614
   29GLOH   H07 8584   2.010   2.044   0.708
   29GLOH    O3 8585   2.011   2.252   0.708
   29GLOH   H01 8586   2.083   2.248   0.776
   30GLOH   H03 8587   2.380   2.752   3.257
   30GLOH    O1 8588   2.332   2.665   3.266
   30GLOH    C1 8589   2.404   2.579   3.356
   30GLOH   H02 8590   2.479   2.636   3.412
   30GLOH   H08 8591   2.457   2.502   3.301
   30GLOH    C2 8592   2.312   2.510   3.459
   30GLOH   H04 8593   2.261   2.588   3.517
   30GLOH    O2 8594   2.212   2.426   3.396
   30GLOH   H05 8595   2.226   2.424   3.297
   30GLOH    C3 8596   2.397   2.425   3.556
   30GLOH   H06 8597   2.332   2.388   3.635
   30GLOH   H07 8598   2.471   2.490   3.603
   30GLOH    O3 8599   2.462   2.316   3.490
   30GLOH   H01 8600   2.404   2.285   3.417
   31GLOH   H03 8601   9.547   4.967   2.949
   31GLOH    O1 8602   9.624   4.904   2.942
   31GLOH    C1 8603   9.573   4.769   2.947
   31GLOH   H02 8604   9.471   4.767   2.983
   31GLOH   H08 8605   9.632   4.710   3.018
   31GLOH    C2 8606   9.578   4.697   2.810
   31GLOH   H04 8607   9.562   4.774   2.733
   31GLOH    O2 8608   9.706   4.634   2.784
   31GLOH   H05 8609   9.730   4.576   2.862
   31GLOH    C3 8610   9.462   4.597   2.796
   31GLOH   H06 8611   9.465   4.556   2.695
   31GLOH   H07 8612   9.368   4.651   2.804
   31GLOH    O3 8613   9.467   4.490   2.892
   31GLOH   H01 8614   9.518   4.416   2.851
   32GLOH   H03 8615   8.059   2.251   5.460
   32GLOH    O1 8616   7.994   2.264   5.532
   32GLOH    C1 8617   8.055   2.323   5.649
   32GLOH   H02 8618   8.133   2.258   5.688
   32GLOH   H08 8619   7.980   2.334   5.728
   32GLOH    C2 8620   8.117   2.462   5.624
   32GLOH   H04 8621   8.194   2.451   5.545
   32GLOH    O2 8622   8.019   2.558   5.579
   32GLOH   H05 8623   7.992   2.535   5.484
   32GLOH    C3 8624   8.188   2.514   5.751
   32GLOH   H06 8625   8.232   2.611   5.729
   32GLOH   H07 8626   8.271   2.446   5.773
   32GLOH    O3 8627   8.101   2.523   5.865
   32GLOH   H01 8628   8.037   2.598   5.853
   33GLOH   H03 8629   6.370   1.186   1.579
   33GLOH    O1 8630   6.303   1.120   1.610
   33GLOH    C1 8631   6.233   1.177   1.722
   33GLOH   H02 8632   6.299   1.241   1.780
   33GLOH   H08 8633   6.203   1.097   1.790
   33GLOH    C2 8634   6.105   1.258   1.687
   33GLOH   H04 8635   6.104   1.342   1.758
   33GLOH    O2 8636   6.104   1.315   1.554
   33GLOH   H05 8637   6.170   1.388   1.548
   33GLOH    C3 8638   5.976   1.177   1.711
   33GLOH   H06 8639   5.892   1.244   1.694
   33GLOH   H07 8640   5.973   1.148   1.816
   33GLOH    O3 8641   5.966   1.061   1.627
   33GLOH   H01 8642   6.023   1.075   1.548
   34GLOH   H03 8643   6.638   4.405   5.831
   34GLOH    O1 8644   6.714   4.468   5.830
   34GLOH    C1 8645   6.745   4.512   5.964
   34GLOH   H02 8646   6.660   4.567   6.005
   34GLOH   H08 8647   6.828   4.583   5.960
   34GLOH    C2 8648   6.781   4.400   6.063
   34GLOH   H04 8649   6.696   4.330   6.067
   34GLOH    O2 8650   6.899   4.326   6.025
   34GLOH   H05 8651   6.976   4.390   6.028
   34GLOH    C3 8652   6.799   4.460   6.204
   34GLOH   H06 8653   6.835   4.381   6.271
   34GLOH   H07 8654   6.701   4.490   6.241
   34GLOH    O3 8655   6.890   4.571   6.207
   34GLOH   H01 8656   6.971   4.549   6.153
   35GLOH   H03 8657   3.608   7.039   0.042
   35GLOH    O1 8658   3.617   7.004   0.134
   35GLOH    C1 8659   3.751   6.956   0.155
   35GLOH   H02 8660   3.756   6.901   0.249
   35GLOH   H08 8661   3.820   7.040   0.163
   35GLOH    C2 8662   3.798   6.864   0.041
   35GLOH   H04 8663   3.715   6.795   0.018
   35GLOH    O2 8664   3.828   6.939   9.921
   35GLOH   H05 8665   3.748   6.994   9.899
   35GLOH    C3 8666   3.916   6.775   0.086
   35GLOH   H06 8667   3.937   6.704   0.006
   35GLOH   H07 8668   3.882   6.716   0.171
   35GLOH    O3 8669   4.036   6.847   0.121
   35GLOH   H01 8670   4.016   6.911   0.195
   36GLOH   H03 8671   2.028   5.441   3.494
   36GLOH    O1 8672   1.954   5.402   3.440
   36GLOH    C1 8673   1.870   5.508   3.390
   36GLOH   H02 8674   1.828   5.565   3.473
   36GLOH   H08 8675   1.786   5.465   3.336
   36GLOH    C2 8676   1.943   5.607   3.296
   36GLOH   H04 8677   2.021   5.659   3.352
   36GLOH    O2 8678   2.000   5.539   3.182
   36GLOH   H05 8679   1.924   5.511   3.127
   36GLOH    C3 8680   1.841   5.709   3.244
   36GLOH   H06 8681   1.894   5.788   3.190
   36GLOH   H07 8682   1.792   5.757   3.329
   36GLOH    O3 8683   1.743   5.647   3.159
   36GLOH   H01 8684   1.721   5.708   3.084
   37GLOH   H03 8685   4.255   5.296   4.469
   37GLOH    O1 8686   4.288   5.364   4.533
   37GLOH    C1 8687   4.366   5.301   4.636
   37GLOH   H02 8688   4.324   5.203   4.661
   37GLOH   H08 8689   4.361   5.361   4.727
   37GLOH    C2 8690   4.514   5.282   4.598
   37GLOH   H04 8691   4.519   5.212   4.514
   37GLOH    O2 8692   4.574   5.407   4.560
   37GLOH   H05 8693   4.571   5.416   4.460
   37GLOH    C3 8694   4.591   5.219   4.717
   37GLOH   H06 8695   4.550   5.119   4.735
   37GLOH   H07 8696   4.570   5.278   4.807
   37GLOH    O3 8697   4.733   5.211   4.695
   37GLOH   H01 8698   4.747   5.205   4.597
   38GLOH   H03 8699   1.275   5.529   5.703
   38GLOH    O1 8700   1.268   5.623   5.731
   38GLOH    C1 8701   1.258   5.711   5.617
   38GLOH   H02 8702   1.336   5.687   5.545
   38GLOH   H08 8703   1.277   5.814   5.649
   38GLOH    C2 8704   1.121   5.706   5.547
   38GLOH   H04 8705   1.098   5.600   5.525
   38GLOH    O2 8706   1.016   5.761   5.629
   38GLOH   H05 8707   1.049   5.778   5.722
   38GLOH    C3 8708   1.125   5.782   5.413
   38GLOH   H06 8709   1.037   5.754   5.355
   38GLOH   H07 8710   1.212   5.749   5.356
   38GLOH    O3 8711   1.129   5.924   5.433
   38GLOH   H01 8712   1.066   5.941   5.507
   39GLOH   H03 8713   0.275   3.074   2.404
   39GLOH    O1 8714   0.217   3.064   2.324
   39GLOH    C1 8715   0.297   3.011   2.217
   39GLOH   H02 8716   0.233   2.971   2.138
   39GLOH   H08 8717   0.358   2.928   2.253
   39GLOH    C2 8718   0.390   3.117   2.154
   39GLOH   H04 8719   0.325   3.194   2.110
   39GLOH    O2 8720   0.477   3.180   2.251
   39GLOH   H05 8721   0.531   3.110   2.297
   39GLOH    C3 8722   0.469   3.055   2.037
   39GLOH   H06 8723   0.539   3.129   2.000
   39GLOH   H07 8724   0.398   3.035   1.956
   39GLOH    O3 8725   0.538   2.935   2.075
   39GLOH   H01 8726   0.631   2.958   2.100
   40GLOH   H03 8727   8.078   9.514   2.358
   40GLOH    O1 8728   8.066   9.493   2.261
   40GLOH    C1 8729   7.938   9.539   2.214
   40GLOH   H02 8730   7.882   9.456   2.171
   40GLOH   H08 8731   7.952   9.611   2.133
   40GLOH    C2 8732   7.850   9.605   2.323
   40GLOH   H04 8733   7.838   9.533   2.404
   40GLOH    O2 8734   7.911   9.725   2.376
   40GLOH   H05 8735   7.905   9.797   2.307
   40GLOH    C3 8736   7.710   9.635   2.266
   40GLOH   H06 8737   7.654   9.690   2.341
   40GLOH   H07 8738   7.659   9.540   2.250
   40GLOH    O3 8739   7.715   9.709   2.142
   40GLOH   H01 8740   7.765   9.792   2.156
   41GLOH   H03 8741   9.880   1.283   7.303
   41GLOH    O1 8742   9.872   1.185   7.296
   41GLOH    C1 8743   9.757   1.148   7.218
   41GLOH   H02 8744   9.669   1.201   7.253
   41GLOH   H08 8745   9.736   1.042   7.230
   41GLOH    C2 8746   9.774   1.177   7.067
   41GLOH   H04 8747   9.783   1.286   7.055
   41GLOH    O2 8748   9.892   1.114   7.012
   41GLOH   H05 8749   9.959   1.110   7.084
   41GLOH    C3 8750   9.647   1.133   6.991
   41GLOH   H06 8751   9.659   1.164   6.887
   41GLOH   H07 8752   9.563   1.190   7.030
   41GLOH    O3 8753   9.618   0.992   6.997
   41GLOH   H01 8754   9.688   0.943   7.047
   42GLOH   H03 8755   1.677   9.992   2.565
   42GLOH    O1 8756   1.621   0.036   2.496
   42GLOH    C1 8757   1.575   0.165   2.545
   42GLOH   H02 8758   1.469   0.177   2.520
   42GLOH   H08 8759   1.628   0.245   2.493
   42GLOH    C2 8760   1.591   0.186   2.697
   42GLOH   H04 8761   1.546   0.099   2.747
   42GLOH    O2 8762   1.730   0.193   2.736
   42GLOH   H05 8763   1.752   0.286   2.763
   42GLOH    C3 8764   1.512   0.310   2.743
   42GLOH   H06 8765   1.540   0.332   2.846
   42GLOH   H07 8766   1.406   0.283   2.745
   42GLOH    O3 8767   1.532   0.426   2.660
   42GLOH   H01 8768   1.559   0.502   2.716
   43GLOH   H03 8769   0.003   2.668   7.809
   43GLOH    O1 8770   0.077   2.620   7.764
   43GLOH    C1 8771   0.064   2.638   7.622
   43GLOH   H02 8772   9.980   2.703   7.599
   43GLOH   H08 8773   0.043   2.542   7.574
   43GLOH    C2 8774   0.191   2.697   7.558
   43GLOH   H04 8775   0.215   2.792   7.609
   43GLOH    O2 8776   0.302   2.606   7.576
   43GLOH   H05 8777   0.305   2.583   7.671
   43GLOH    C3 8778   0.170   2.728   7.408
   43GLOH   H06 8779   0.248   2.796   7.375
   43GLOH   H07 8780   0.075   2.781   7.397
   43GLOH    O3 8781   0.169   2.608   7.328
   43GLOH   H01 8782   0.244   2.555   7.364
   44GLOH   H03 8783   5.332   2.936   3.813
   44GLOH    O1 8784   5.400   2.870   3.837
   44GLOH    C1 8785   5.483   2.852   3.721
   44GLOH   H02 8786   5.571   2.792   3.746
   44GLOH   H08 8787   5.520   2.948   3.685
   44GLOH    C2 8788   5.407   2.783   3.606
   44GLOH   H04 8789   5.359   2.693   3.647
   44GLOH    O2 8790   5.305   2.867   3.548
   44GLOH   H05 8791   5.262   2.923   3.616
   44GLOH    C3 8792   5.506   2.736   3.497
   44GLOH   H06 8793   5.450   2.682   3.422
   44GLOH   H07 8794   5.575   2.664   3.543
   44GLOH    O3 8795   5.580   2.843   3.436
   44GLOH   H01 8796   5.517   2.893   3.378
   45GLOH   H03 8797   5.558   4.395   2.054
   45GLOH    O1 8798   5.614   4.422   1.976
   45GLOH    C1 8799   5.745   4.458   2.026
   45GLOH   H02 8800   5.736   4.533   2.104
   45GLOH   H08 8801   5.804   4.503   1.946
   45GLOH    C2 8802   5.824   4.338   2.082
   45GLOH   H04 8803   5.758   4.284   2.151
   45GLOH    O2 8804   5.866   4.246   1.978
   45GLOH   H05 8805   5.937   4.287   1.922
   45GLOH    C3 8806   5.945   4.386   2.165
   45GLOH   H06 8807   5.998   4.298   2.202
   45GLOH   H07 8808   5.908   4.440   2.252
   45GLOH    O3 8809   6.035   4.470   2.090
   45GLOH   H01 8810   6.045   4.433   1.999
   46GLOH   H03 8811   9.118   3.447   0.283
   46GLOH    O1 8812   9.063   3.441   0.200
   46GLOH    C1 8813   9.144   3.387   0.094
   46GLOH   H02 8814   9.198   3.298   0.128
   46GLOH   H08 8815   9.220   3.460   0.064
   46GLOH    C2 8816   9.061   3.350   9.969
   46GLOH   H04 8817   8.967   3.306   0.004
   46GLOH    O2 8818   9.029   3.465   9.888
   46GLOH   H05 8819   8.988   3.536   9.943
   46GLOH    C3 8820   9.133   3.243   9.886
   46GLOH   H06 8821   9.070   3.218   9.800
   46GLOH   H07 8822   9.141   3.152   9.947
   46GLOH    O3 8823   9.264   3.283   9.841
   46GLOH   H01 8824   9.250   3.353   9.772
   47GLOH   H03 8825   0.995   6.344   3.843
   47GLOH    O1 8826   0.912   6.392   3.865
   47GLOH    C1 8827   0.799   6.308   3.833
   47GLOH   H02 8828   0.825   6.234   3.757
   47GLOH   H08 8829   0.718   6.368   3.792
   47GLOH    C2 8830   0.745   6.233   3.956
   47GLOH   H04 8831   0.826   6.168   3.992
   47GLOH    O2 8832   0.704   6.321   4.063
   47GLOH   H05 8833   0.612   6.356   4.046
   47GLOH    C3 8834   0.628   6.141   3.916
   47GLOH   H06 8835   0.590   6.091   4.005
   47GLOH   H07 8836   0.667   6.062   3.851
   47GLOH    O3 8837   0.520   6.211   3.850
   47GLOH   H01 8838   0.483   6.278   3.914
   48GLOH   H03 8839   8.675   9.607   5.599
   48GLOH    O1 8840   8.658   9.651   5.511
   48GLOH    C1 8841   8.692   9.791   5.523
   48GLOH   H02 8842   8.643   9.834   5.611
   48GLOH   H08 8843   8.654   9.845   5.437
   48GLOH    C2 8844   8.843   9.818   5.535
   48GLOH   H04 8845   8.880   9.768   5.626
   48GLOH    O2 8846   8.916   9.767   5.421
   48GLOH   H05 8847   8.857   9.776   5.341
   48GLOH    C3 8848   8.866   9.969   5.553
   48GLOH   H06 8849   8.973   9.987   5.565
   48GLOH   H07 8850   8.820   0.000   5.647
   48GLOH    O3 8851   8.814   0.047   5.444
   48GLOH   H01 8852   8.891   0.072   5.387
   49GLOH   H03 8853   8.354   9.690   9.048
   49GLOH    O1 8854   8.338   9.770   9.102
   49GLOH    C1 8855   8.460   9.810   9.168
   49GLOH   H02 8856   8.507   9.724   9.215
   49GLOH   H08 8857   8.437   9.880   9.248
   49GLOH    C2 8858   8.562   9.876   9.073
   49GLOH   H04 8859   8.592   9.801   8.998
   49GLOH    O2 8860   8.506   9.990   9.003
   49GLOH   H05 8861   8.413   0.006   9.035
   49GLOH    C3 8862   8.688   9.917   9.151
   49GLOH   H06 8863   8.757   9.963   9.082
   49GLOH   H07 8864   8.736   9.826   9.188
   49GLOH    O3 8865   8.661   0.007   9.261
   49GLOH   H01 8866   8.626   0.091   9.222
   50GLOH   H03 8867   2.644   0.730   8.260
   50GLOH    O1 8868   2.627   0.813   8.208
   50GLOH    C1 8869   2.636   0.782   8.067
   50GLOH   H02 8870   2.615   0.677   8.051
   50GLOH   H08 8871   2.737   0.800   8.032
   50GLOH    C2 8872   2.539   0.863   7.979
   50GLOH   H04 8873   2.437   0.848   8.019
   50GLOH    O2 8874   2.567   1.005   7.979
   50GLOH   H05 8875   2.559   1.041   8.071
   50GLOH    C3 8876   2.541   0.805   7.836
   50GLOH   H06 8877   2.476   0.866   7.773
   50GLOH   H07 8878   2.497   0.705   7.839
   50GLOH    O3 8879   2.673   0.799   7.779
   50GLOH   H01 8880   2.668   0.750   7.692
   51GLOH   H03 8881   6.186   2.336   4.141
   51GLOH    O1 8882   6.183   2.433   4.161
   51GLOH    C1 8883   6.131   2.458   4.293
   51GLOH   H02 8884   6.023   2.446   4.293
   51GLOH   H08 8885   6.152   2.561   4.322
   51GLOH    C2 8886   6.186   2.364   4.403
   51GLOH   H04 8887   6.150   2.263   4.378
   51GLOH    O2 8888   6.330   2.362   4.407
   51GLOH   H05 8889   6.363   2.454   4.418
   51GLOH    C3 8890   6.126   2.400   4.540
   51GLOH   H06 8891   6.167   2.331   4.614
   51GLOH   H07 8892   6.019   2.380   4.536
   51GLOH    O3 8893   6.148   2.536   4.583
   51GLOH   H01 8894   6.148   2.533   4.683
   52GLOH   H03 8895   3.246   7.164   2.564
   52GLOH    O1 8896   3.162   7.152   2.614
   52GLOH    C1 8897   3.134   7.272   2.688
   52GLOH   H02 8898   3.028   7.277   2.712
   52GLOH   H08 8899   3.155   7.360   2.627
   52GLOH    C2 8900   3.217   7.281   2.819
   52GLOH   H04 8901   3.270   7.186   2.833
   52GLOH    O2 8902   3.314   7.387   2.817
   52GLOH   H05 8903   3.354   7.398   2.727
   52GLOH    C3 8904   3.122   7.298   2.939
   52GLOH   H06 8905   3.179   7.288   3.031
   52GLOH   H07 8906   3.051   7.215   2.937
   52GLOH    O3 8907   3.052   7.424   2.937
   52GLOH   H01 8908   3.102   7.487   2.878
   53GLOH   H03 8909   8.341   6.944   6.240
   53GLOH    O1 8910   8.325   6.889   6.321
   53GLOH    C1 8911   8.451   6.852   6.381
   53GLOH   H02 8912   8.436   6.776   6.457
   53GLOH   H08 8913   8.495   6.938   6.432
   53GLOH    C2 8914   8.553   6.799   6.279
   53GLOH   H04 8915   8.500   6.722   6.221
   53GLOH    O2 8916   8.594   6.902   6.187
   53GLOH   H05 8917   8.628   6.981   6.238
   53GLOH    C3 8918   8.671   6.727   6.349
   53GLOH   H06 8919   8.744   6.699   6.273
   53GLOH   H07 8920   8.633   6.634   6.391
   53GLOH    O3 8921   8.736   6.804   6.452
   53GLOH   H01 8922   8.811   6.855   6.411
   54GLOH   H03 8923   9.982   8.554   8.480
   54GLOH    O1 8924   9.977   8.646   8.443
   54GLOH    C1 8925   9.888   8.643   8.330
   54GLOH   H02 8926   9.866   8.744   8.297
   54GLOH   H08 8927   9.793   8.599   8.359
   54GLOH    C2 8928   9.946   8.563   8.211
   54GLOH   H04 8929   0.045   8.606   8.190
   54GLOH    O2 8930   9.965   8.422   8.242
   54GLOH   H05 8931   9.968   8.413   8.342
   54GLOH    C3 8932   9.861   8.582   8.084
   54GLOH   H06 8933   9.880   8.498   8.017
   54GLOH   H07 8934   9.900   8.671   8.032
   54GLOH    O3 8935   9.720   8.596   8.107
   54GLOH   H01 8936   9.689   8.529   8.174
   55GLOH   H03 8937   3.924   0.118   8.875
   55GLOH    O1 8938   3.955   0.029   8.909
   55GLOH    C1 8939   4.031   0.052   9.029
   55GLOH   H02 8940   4.105   0.131   9.012
   55GLOH   H08 8941   4.087   9.963   9.056
   55GLOH    C2 8942   3.942   0.093   9.148
   55GLOH   H04 8943   3.881   0.179   9.117
   55GLOH    O2 8944   3.855   9.984   9.185
   55GLOH   H05 8945   3.820   9.942   9.102
   55GLOH    C3 8946   4.027   0.137   9.269
   55GLOH   H06 8947   3.962   0.187   9.340
   55GLOH   H07 8948   4.100   0.210   9.236
   55GLOH    O3 8949   4.094   0.026   9.332
   55GLOH   H01 8950   4.051   9.944   9.300
   56GLOH   H03 8951   3.207   2.340   5.886
   56GLOH    O1 8952   3.266   2.282   5.941
   56GLOH    C1 8953   3.263   2.334   6.076
   56GLOH   H02 8954   3.166   2.314   6.122
   56GLOH   H08 8955   3.275   2.443   6.074
   56GLOH    C2 8956   3.373   2.276   6.167
   56GLOH   H04 8957   3.373   2.167   6.153
   56GLOH    O2 8958   3.503   2.325   6.129
   56GLOH   H05 8959   3.546   2.261   6.069
   56GLOH    C3 8960   3.338   2.301   6.315
   56GLOH   H06 8961   3.422   2.268   6.376
   56GLOH   H07 8962   3.254   2.237   6.342
   56GLOH    O3 8963   3.306   2.438   6.347
   56GLOH   H01 8964   3.391   2.484   6.366
   57GLOH   H03 8965   0.224   6.852   4.967
   57GLOH    O1 8966   0.169   6.835   4.885
   57GLOH    C1 8967   0.246   6.764   4.786
   57GLOH   H02 8968   0.323   6.830   4.745
   57GLOH   H08 8969   0.182   6.736   4.703
   57GLOH    C2 8970   0.316   6.637   4.839
   57GLOH   H04 8971   0.380   6.667   4.923
   57GLOH    O2 8972   0.221   6.538   4.885
   57GLOH   H05 8973   0.261   6.489   4.962
   57GLOH    C3 8974   0.408   6.578   4.729
   57GLOH   H06 8975   0.447   6.483   4.765
   57GLOH   H07 8976   0.493   6.644   4.717
   57GLOH    O3 8977   0.342   6.559   4.603
   57GLOH   H01 8978   0.256   6.510   4.618
   58GLOH   H03 8979   3.403   1.802   8.027
   58GLOH    O1 8980   3.410   1.755   8.114
   58GLOH    C1 8981   3.291   1.781   8.191
   58GLOH   H02 8982   3.273   1.889   8.197
   58GLOH   H08 8983   3.304   1.746   8.294
   58GLOH    C2 8984   3.166   1.713   8.132
   58GLOH   H04 8985   3.166   1.736   8.024
   58GLOH    O2 8986   3.173   1.569   8.147
   58GLOH   H05 8987   3.265   1.541   8.124
   58GLOH    C3 8988   3.037   1.774   8.189
   58GLOH   H06 8989   2.953   1.739   8.128
   58GLOH   H07 8990   3.042   1.882   8.175
   58GLOH    O3 8991   3.014   1.743   8.328
   58GLOH   H01 8992   2.927   1.696   8.332
   59GLOH   H03 8993   2.362   8.501   5.117
   59GLOH    O1 8994   2.387   8.451   5.198
   59GLOH    C1 8995   2.312   8.506   5.308
   59GLOH   H02 8996   2.206   8.510   5.281
   59GLOH   H08 8997   2.344   8.609   5.328
   59GLOH    C2 8998   2.324   8.426   5.439
   59GLOH   H04 8999   2.297   8.321   5.417
   59GLOH    O2 9000   2.459   8.429   5.490
   59GLOH   H05 9001   2.476   8.520   5.525
   59GLOH    C3 9002   2.224   8.478   5.543
   59GLOH   H06 9003   2.205   8.398   5.615
   59GLOH   H07 9004   2.130   8.497   5.493
   59GLOH    O3 9005   2.264   8.598   5.613
   59GLOH   H01 9006   2.294   8.670   5.552
   60GLOH   H03 9007   1.695   3.815   5.423
   60GLOH    O1 9008   1.738   3.883   5.480
   60GLOH    C1 9009   1.755   3.833   5.614
   60GLOH   H02 9010   1.658   3.807   5.657
   60GLOH   H08 9011   1.797   3.910   5.678
   60GLOH    C2 9012   1.846   3.709   5.622
   60GLOH   H04 9013   1.809   3.636   5.548
   60GLOH    O2 9014   1.983   3.739   5.590
   60GLOH   H05 9015   1.987   3.811   5.521
   60GLOH    C3 9016   1.834   3.641   5.760
   60GLOH   H06 9017   1.901   3.555   5.762
   60GLOH   H07 9018   1.732   3.602   5.770
   60GLOH    O3 9019   1.864   3.730   5.869
   60GLOH   H01 9020   1.960   3.750   5.864
   61GLOH   H03 9021   2.702   0.553   1.408
   61GLOH    O1 9022   2.639   0.567   1.333
   61GLOH    C1 9023   2.619   0.709   1.317
   61GLOH   H02 9024   2.552   0.727   1.232
   61GLOH   H08 9025   2.714   0.757   1.293
   61GLOH    C2 9026   2.558   0.778   1.440
   61GLOH   H04 9027   2.468   0.722   1.468
   61GLOH    O2 9028   2.648   0.777   1.554
   61GLOH   H05 9029   2.707   0.697   1.548
   61GLOH    C3 9030   2.511   0.920   1.402
   61GLOH   H06 9031   2.511   0.983   1.491
   61GLOH   H07 9032   2.408   0.914   1.369
   61GLOH    O3 9033   2.591   0.982   1.298
   61GLOH   H01 9034   2.658   1.041   1.340
   62GLOH   H03 9035   5.237   3.988   9.346
   62GLOH    O1 9036   5.227   4.024   9.254
   62GLOH    C1 9037   5.089   4.062   9.234
   62GLOH   H02 9038   5.069   4.076   9.128
   62GLOH   H08 9039   5.069   4.157   9.283
   62GLOH    C2 9040   4.987   3.959   9.288
   62GLOH   H04 9041   5.013   3.861   9.245
   62GLOH    O2 9042   4.992   3.950   9.432
   62GLOH   H05 9043   5.083   3.924   9.461
   62GLOH    C3 9044   4.845   3.995   9.240
   62GLOH   H06 9045   4.775   3.924   9.284
   62GLOH   H07 9046   4.841   3.980   9.132
   62GLOH    O3 9047   4.808   4.130   9.273
   62GLOH   H01 9048   4.840   4.150   9.364
   63GLOH   H03 9049   6.968   8.358   7.153
   63GLOH    O1 9050   6.877   8.323   7.140
   63GLOH    C1 9051   6.820   8.375   7.019
   63GLOH   H02 9052   6.809   8.483   7.026
   63GLOH   H08 9053   6.720   8.335   7.004
   63GLOH    C2 9054   6.903   8.343   6.892
   63GLOH   H04 9055   7.008   8.369   6.913
   63GLOH    O2 9056   6.896   8.205   6.854
   63GLOH   H05 9057   6.893   8.144   6.934
   63GLOH    C3 9058   6.855   8.432   6.776
   63GLOH   H06 9059   6.916   8.409   6.688
   63GLOH   H07 9060   6.875   8.536   6.802
   63GLOH    O3 9061   6.716   8.414   6.747
   63GLOH   H01 9062   6.698   8.318   6.731
   64GLOH   H03 9063   0.043   7.361   6.718
   64GLOH    O1 9064   9.999   7.401   6.639
   64GLOH    C1 9065   0.032   7.323   6.523
   64GLOH   H02 9066   0.139   7.303   6.519
   64GLOH   H08 9067   0.008   7.379   6.432
   64GLOH    C2 9068   9.956   7.189   6.520
   64GLOH   H04 9069   9.982   7.136   6.613
   64GLOH    O2 9070   9.814   7.212   6.520
   64GLOH   H05 9071   9.795   7.269   6.597
   64GLOH    C3 9072   0.003   7.102   6.403
   64GLOH   H06 9073   9.953   7.005   6.410
   64GLOH   H07 9074   0.110   7.082   6.416
   64GLOH    O3 9075   9.980   7.159   6.273
   64GLOH   H01 9076   9.894   7.121   6.239
   65GLOH   H03 9077   8.229   2.469   1.858
   65GLOH    O1 9078   8.166   2.546   1.853
   65GLOH    C1 9079   8.142   2.581   1.715
   65GLOH   H02 9080   8.216   2.654   1.682
   65GLOH   H08 9081   8.045   2.629   1.705
   65GLOH    C2 9082   8.147   2.462   1.616
   65GLOH   H04 9083   8.244   2.412   1.628
   65GLOH    O2 9084   8.042   2.366   1.641
   65GLOH   H05 9085   8.062   2.283   1.589
   65GLOH    C3 9086   8.137   2.513   1.472
   65GLOH   H06 9087   8.159   2.430   1.404
   65GLOH   H07 9088   8.216   2.587   1.456
   65GLOH    O3 9089   8.009   2.570   1.442
   65GLOH   H01 9090   7.942   2.525   1.499
   66GLOH   H03 9091   0.678   0.883   1.134
   66GLOH    O1 9092   0.698   0.972   1.094
   66GLOH    C1 9093   0.724   0.959   0.953
   66GLOH   H02 9094   0.797   0.881   0.936
   66GLOH   H08 9095   0.768   1.051   0.915
   66GLOH    C2 9096   0.599   0.928   0.868
   66GLOH   H04 9097   0.563   0.828   0.896
   66GLOH    O2 9098   0.492   1.025   0.885
   66GLOH   H05 9099   0.471   1.033   0.984
   66GLOH    C3 9100   0.644   0.924   0.721
   66GLOH   H06 9101   0.561   0.891   0.658
   66GLOH   H07 9102   0.722   0.849   0.712
   66GLOH    O3 9103   0.693   1.051   0.675
   66GLOH   H01 9104   0.631   1.120   0.708
   67GLOH   H03 9105   7.264   8.516   8.378
   67GLOH    O1 9106   7.291   8.499   8.472
   67GLOH    C1 9107   7.367   8.376   8.481
   67GLOH   H02 9108   7.360   8.320   8.388
   67GLOH   H08 9109   7.325   8.313   8.559
   67GLOH    C2 9110   7.516   8.400   8.513
   67GLOH   H04 9111   7.556   8.466   8.435
   67GLOH    O2 9112   7.539   8.462   8.642
   67GLOH   H05 9113   7.454   8.503   8.674
   67GLOH    C3 9114   7.593   8.266   8.503
   67GLOH   H06 9115   7.695   8.283   8.538
   67GLOH   H07 9116   7.602   8.238   8.398
   67GLOH    O3 9117   7.533   8.159   8.577
   67GLOH   H01 9118   7.555   8.175   8.673
   68GLOH   H03 9119   2.638   8.380   1.389
   68GLOH    O1 9120   2.580   8.299   1.388
   68GLOH    C1 9121   2.518   8.278   1.517
   68GLOH   H02 9122   2.516   8.172   1.540
   68GLOH   H08 9123   2.414   8.311   1.514
   68GLOH    C2 9124   2.589   8.349   1.633
   68GLOH   H04 9125   2.690   8.307   1.637
   68GLOH    O2 9126   2.601   8.491   1.614
   68GLOH   H05 9127   2.531   8.522   1.550
   68GLOH    C3 9128   2.521   8.316   1.768
   68GLOH   H06 9129   2.558   8.385   1.843
   68GLOH   H07 9130   2.553   8.216   1.798
   68GLOH    O3 9131   2.378   8.322   1.761
   68GLOH   H01 9132   2.350   8.415   1.740
   69GLOH   H03 9133   1.257   5.459   3.235
   69GLOH    O1 9134   1.256   5.476   3.138
   69GLOH    C1 9135   1.237   5.617   3.117
   69GLOH   H02 9136   1.171   5.658   3.194
   69GLOH   H08 9137   1.188   5.634   3.021
   69GLOH    C2 9138   1.370   5.695   3.119
   69GLOH   H04 9139   1.430   5.657   3.203
   69GLOH    O2 9140   1.444   5.675   2.996
   69GLOH   H05 9141   1.442   5.578   2.975
   69GLOH    C3 9142   1.344   5.844   3.145
   69GLOH   H06 9143   1.439   5.896   3.150
   69GLOH   H07 9144   1.297   5.854   3.243
   69GLOH    O3 9145   1.259   5.903   3.045
   69GLOH   H01 9146   1.310   5.978   3.004
   70GLOH   H03 9147   4.454   3.602   4.401
   70GLOH    O1 9148   4.412   3.686   4.429
   70GLOH    C1 9149   4.423   3.702   4.572
   70GLOH   H02 9150   4.324   3.691   4.617
   70GLOH   H08 9151   4.456   3.803   4.595
   70GLOH    C2 9152   4.518   3.604   4.643
   70GLOH   H04 9153   4.482   3.502   4.624
   70GLOH    O2 9154   4.653   3.615   4.591
   70GLOH   H05 9155   4.684   3.527   4.556
   70GLOH    C3 9156   4.513   3.628   4.795
   70GLOH   H06 9157   4.588   3.565   4.842
   70GLOH   H07 9158   4.416   3.593   4.831
   70GLOH    O3 9159   4.532   3.765   4.833
   70GLOH   H01 9160   4.627   3.777   4.859
   71GLOH   H03 9161   3.498   6.522   1.493
   71GLOH    O1 9162   3.541   6.437   1.467
   71GLOH    C1 9163   3.497   6.399   1.335
   71GLOH   H02 9164   3.389   6.388   1.333
   71GLOH   H08 9165   3.539   6.301   1.310
   71GLOH    C2 9166   3.538   6.498   1.224
   71GLOH   H04 9167   3.486   6.593   1.242
   71GLOH    O2 9168   3.680   6.522   1.223
   71GLOH   H05 9169   3.712   6.520   1.316
   71GLOH    C3 9170   3.491   6.442   1.089
   71GLOH   H06 9171   3.524   6.509   1.010
   71GLOH   H07 9172   3.382   6.443   1.087
   71GLOH    O3 9173   3.540   6.309   1.063
   71GLOH   H01 9174   3.634   6.305   1.092
   72GLOH   H03 9175   6.819   6.363   4.532
   72GLOH    O1 9176   6.748   6.293   4.527
   72GLOH    C1 9177   6.740   6.245   4.391
   72GLOH   H02 9178   6.712   6.327   4.324
   72GLOH   H08 9179   6.662   6.170   4.382
   72GLOH    C2 9180   6.873   6.184   4.342
   72GLOH   H04 9181   6.954   6.250   4.377
   72GLOH    O2 9182   6.895   6.052   4.396
   72GLOH   H05 9183   6.994   6.039   4.407
   72GLOH    C3 9184   6.879   6.185   4.188
   72GLOH   H06 9185   6.983   6.172   4.158
   72GLOH   H07 9186   6.850   6.285   4.155
   72GLOH    O3 9187   6.796   6.088   4.122
   72GLOH   H01 9188   6.726   6.052   4.182
   73GLOH   H03 9189   9.349   1.601   4.168
   73GLOH    O1 9190   9.440   1.593   4.205
   73GLOH    C1 9191   9.434   1.609   4.348
   73GLOH   H02 9192   9.348   1.669   4.377
   73GLOH   H08 9193   9.522   1.663   4.384
   73GLOH    C2 9194   9.426   1.474   4.423
   73GLOH   H04 9195   9.338   1.420   4.385
   73GLOH    O2 9196   9.544   1.395   4.397
   73GLOH   H05 9197   9.532   1.350   4.309
   73GLOH    C3 9198   9.406   1.495   4.574
   73GLOH   H06 9199   9.402   1.397   4.621
   73GLOH   H07 9200   9.308   1.540   4.589
   73GLOH    O3 9201   9.507   1.577   4.636
   73GLOH   H01 9202   9.592   1.567   4.585
   74GLOH   H03 9203   7.411   9.497   9.459
   74GLOH    O1 9204   7.361   9.580   9.483
   74GLOH    C1 9205   7.278   9.616   9.370
   74GLOH   H02 9206   7.339   9.646   9.286
   74GLOH   H08 9207   7.215   9.702   9.395
   74GLOH    C2 9208   7.186   9.500   9.325
   74GLOH   H04 9209   7.250   9.413   9.305
   74GLOH    O2 9210   7.091   9.463   9.428
   74GLOH   H05 9211   7.120   9.499   9.516
   74GLOH    C3 9212   7.114   9.534   9.194
   74GLOH   H06 9213   7.071   9.442   9.155
   74GLOH   H07 9214   7.189   9.565   9.121
   74GLOH    O3 9215   7.013   9.636   9.206
   74GLOH   H01 9216   6.948   9.608   9.275
   75GLOH   H03 9217   0.476   9.168   3.629
   75GLOH    O1 9218   0.382   9.167   3.658
   75GLOH    C1 9219   0.369   9.091   3.781
   75GLOH   H02 9220   0.274   9.038   3.781
   75GLOH   H08 9221   0.366   9.159   3.866
   75GLOH    C2 9222   0.481   8.988   3.805
   75GLOH   H04 9223   0.484   8.921   3.717
   75GLOH    O2 9224   0.611   9.051   3.819
   75GLOH   H05 9225   0.599   9.146   3.846
   75GLOH    C3 9226   0.449   8.901   3.928
   75GLOH   H06 9227   0.532   8.832   3.944
   75GLOH   H07 9228   0.361   8.841   3.906
   75GLOH    O3 9229   0.427   8.980   4.046
   75GLOH   H01 9230   0.509   9.030   4.066
   76GLOH   H03 9231   0.077   7.634   7.570
   76GLOH    O1 9232   9.997   7.579   7.550
   76GLOH    C1 9233   9.891   7.604   7.645
   76GLOH   H02 9234   9.900   7.536   7.730
   76GLOH   H08 9235   9.795   7.584   7.599
   76GLOH    C2 9236   9.889   7.749   7.699
   76GLOH   H04 9237   9.990   7.771   7.738
   76GLOH    O2 9238   9.860   7.845   7.595
   76GLOH   H05 9239   9.831   7.796   7.513
   76GLOH    C3 9240   9.792   7.762   7.817
   76GLOH   H06 9241   9.791   7.866   7.850
   76GLOH   H07 9242   9.830   7.703   7.901
   76GLOH    O3 9243   9.658   7.721   7.785
   76GLOH   H01 9244   9.616   7.797   7.737
   77GLOH   H03 9245   0.766   2.986   0.616
   77GLOH    O1 9246   0.753   2.953   0.524
   77GLOH    C1 9247   0.617   2.905   0.509
   77GLOH   H02 9248   0.619   2.810   0.455
   77GLOH   H08 9249   0.560   2.975   0.448
   77GLOH    C2 9250   0.541   2.883   0.641
   77GLOH   H04 9251   0.604   2.818   0.703
   77GLOH    O2 9252   0.521   3.008   0.710
   77GLOH   H05 9253   0.610   3.034   0.747
   77GLOH    C3 9254   0.409   2.806   0.618
   77GLOH   H06 9255   0.352   2.807   0.710
   77GLOH   H07 9256   0.434   2.702   0.598
   77GLOH    O3 9257   0.330   2.859   0.510
   77GLOH   H01 9258   0.266   2.925   0.546
   78GLOH   H03 9259   8.417   3.231   6.002
   78GLOH    O1 9260   8.388   3.325   5.988
   78GLOH    C1 9261   8.371   3.349   5.847
   78GLOH   H02 9262   8.468   3.345   5.797
   78GLOH   H08 9263   8.331   3.449   5.829
   78GLOH    C2 9264   8.277   3.247   5.778
   78GLOH   H04 9265   8.322   3.147   5.791
   78GLOH    O2 9266   8.146   3.246   5.837
   78GLOH   H05 9267   8.138   3.164   5.895
   78GLOH    C3 9268   8.269   3.275   5.627
   78GLOH   H06 9269   8.225   3.187   5.579
   78GLOH   H07 9270   8.371   3.282   5.588
   78GLOH    O3 9271   8.195   3.394   5.591
   78GLOH   H01 9272   8.160   3.437   5.673
   79GLOH   H03 9273   6.754   2.477   8.457
   79GLOH    O1 9274   6.804   2.455   8.539
   79GLOH    C1 9275   6.839   2.575   8.610
   79GLOH   H02 9276   6.867   2.654   8.540
   79GLOH   H08 9277   6.927   2.557   8.673
   79GLOH    C2 9278   6.726   2.629   8.700
   79GLOH   H04 9279   6.637   2.635   8.636
   79GLOH    O2 9280   6.693   2.542   8.810
   79GLOH   H05 9281   6.771   2.484   8.832
   79GLOH    C3 9282   6.755   2.772   8.750
   79GLOH   H06 9283   6.684   2.796   8.829
   79GLOH   H07 9284   6.733   2.841   8.668
   79GLOH    O3 9285   6.889   2.790   8.798
   79GLOH   H01 9286   6.894   2.751   8.889
   80GLOH   H03 9287   2.377   2.594   8.393
   80GLOH    O1 9288   2.473   2.574   8.386
   80GLOH    C1 9289   2.550   2.645   8.486
   80GLOH   H02 9290   2.596   2.733   8.440
   80GLOH   H08 9291   2.633   2.582   8.520
   80GLOH    C2 9292   2.471   2.693   8.609
   80GLOH   H04 9293   2.390   2.756   8.573
   80GLOH    O2 9294   2.414   2.586   8.688
   80GLOH   H05 9295   2.365   2.521   8.630
   80GLOH    C3 9296   2.563   2.782   8.695
   80GLOH   H06 9297   2.509   2.814   8.784
   80GLOH   H07 9298   2.585   2.872   8.639
   80GLOH    O3 9299   2.686   2.715   8.731
   80GLOH   H01 9300   2.668   2.644   8.797
   81GLOH   H03 9301   7.134   0.584   8.691
   81GLOH    O1 9302   7.207   0.627   8.640
   81GLOH    C1 9303   7.323   0.646   8.724
   81GLOH   H02 9304   7.371   0.740   8.697
   81GLOH   H08 9305   7.396   0.567   8.706
   81GLOH    C2 9306   7.295   0.654   8.876
   81GLOH   H04 9307   7.220   0.733   8.890
   81GLOH    O2 9308   7.241   0.531   8.929
   81GLOH   H05 9309   7.260   0.455   8.867
   81GLOH    C3 9310   7.421   0.697   8.952
   81GLOH   H06 9311   7.399   0.696   9.059
   81GLOH   H07 9312   7.443   0.800   8.926
   81GLOH    O3 9313   7.536   0.614   8.925
   81GLOH   H01 9314   7.531   0.534   8.983
   82GLOH   H03 9315   1.091   9.892   2.198
   82GLOH    O1 9316   1.101   9.892   2.100
   82GLOH    C1 9317   1.218   9.967   2.060
   82GLOH   H02 9318   1.212   0.069   2.097
   82GLOH   H08 9319   1.222   9.973   1.952
   82GLOH    C2 9320   1.349   9.902   2.109
   82GLOH   H04 9321   1.336   9.879   2.216
   82GLOH    O2 9322   1.373   9.778   2.038
   82GLOH   H05 9323   1.288   9.729   2.024
   82GLOH    C3 9324   1.470   9.997   2.098
   82GLOH   H06 9325   1.560   9.937   2.110
   82GLOH   H07 9326   1.468   0.066   2.182
   82GLOH    O3 9327   1.476   0.069   1.973
   82GLOH   H01 9328   1.489   0.004   1.901
   83GLOH   H03 9329   6.201   9.583   5.454
   83GLOH    O1 9330   6.282   9.527   5.467
   83GLOH    C1 9331   6.327   9.486   5.336
   83GLOH   H02 9332   6.243   9.448   5.277
   83GLOH   H08 9333   6.399   9.405   5.345
   83GLOH    C2 9334   6.393   9.601   5.258
   83GLOH   H04 9335   6.319   9.683   5.253
   83GLOH    O2 9336   6.510   9.649   5.326
   83GLOH   H05 9337   6.505   9.618   5.419
   83GLOH    C3 9338   6.423   9.558   5.113
   83GLOH   H06 9339   6.489   9.632   5.068
   83GLOH   H07 9340   6.329   9.561   5.057
   83GLOH    O3 9341   6.481   9.427   5.105
   83GLOH   H01 9342   6.564   9.430   5.052
   84GLOH   H03 9343   8.613   2.797   6.920
   84GLOH    O1 9344   8.586   2.711   6.880
   84GLOH    C1 9345   8.448   2.717   6.839
   84GLOH   H02 9346   8.384   2.727   6.926
   84GLOH   H08 9347   8.419   2.624   6.790
   84GLOH    C2 9348   8.417   2.834   6.743
   84GLOH   H04 9349   8.438   2.927   6.797
   84GLOH    O2 9350   8.497   2.831   6.622
   84GLOH   H05 9351   8.461   2.763   6.559
   84GLOH    C3 9352   8.267   2.835   6.706
   84GLOH   H06 9353   8.248   2.920   6.641
   84GLOH   H07 9354   8.210   2.852   6.796
   84GLOH    O3 9355   8.224   2.713   6.642
   84GLOH   H01 9356   8.282   2.693   6.565
   85GLOH   H03 9357   0.542   2.333   2.899
   85GLOH    O1 9358   0.464   2.274   2.914
   85GLOH    C1 9359   0.346   2.337   2.859
   85GLOH   H02 9360   0.359   2.354   2.752
   85GLOH   H08 9361   0.329   2.434   2.904
   85GLOH    C2 9362   0.219   2.251   2.878
   85GLOH   H04 9363   0.243   2.150   2.841
   85GLOH    O2 9364   0.187   2.241   3.019
   85GLOH   H05 9365   0.256   2.180   3.057
   85GLOH    C3 9366   0.102   2.303   2.792
   85GLOH   H06 9367   0.019   2.233   2.804
   85GLOH   H07 9368   0.133   2.297   2.687
   85GLOH    O3 9369   0.059   2.436   2.823
   85GLOH   H01 9370   9.989   2.429   2.893
   86GLOH   H03 9371   2.066   6.509   8.826
   86GLOH    O1 9372   2.063   6.473   8.733
   86GLOH    C1 9373   2.058   6.329   8.734
   86GLOH   H02 9374   2.158   6.289   8.714
   86GLOH   H08 9375   1.995   6.295   8.652
   86GLOH    C2 9376   2.007   6.261   8.863
   86GLOH   H04 9377   2.073   6.292   8.945
   86GLOH    O2 9378   1.871   6.295   8.899
   86GLOH   H05 9379   1.875   6.369   8.967
   86GLOH    C3 9380   2.022   6.108   8.848
   86GLOH   H06 9381   1.968   6.059   8.930
   86GLOH   H07 9382   2.128   6.083   8.862
   86GLOH    O3 9383   1.976   6.059   8.721
   86GLOH   H01 9384   1.902   5.995   8.736
   87GLOH   H03 9385   6.666   1.434   4.997
   87GLOH    O1 9386   6.749   1.381   4.999
   87GLOH    C1 9387   6.851   1.456   5.069
   87GLOH   H02 9388   6.918   1.503   4.998
   87GLOH   H08 9389   6.912   1.388   5.129
   87GLOH    C2 9390   6.801   1.569   5.162
   87GLOH   H04 9391   6.756   1.646   5.099
   87GLOH    O2 9392   6.703   1.521   5.257
   87GLOH   H05 9393   6.627   1.478   5.209
   87GLOH    C3 9394   6.924   1.631   5.231
   87GLOH   H06 9395   6.892   1.718   5.289
   87GLOH   H07 9396   6.990   1.670   5.153
   87GLOH    O3 9397   6.998   1.539   5.315
   87GLOH   H01 9398   6.936   1.510   5.386
   88GLOH   H03 9399   2.616   4.351   7.175
   88GLOH    O1 9400   2.700   4.297   7.176
   88GLOH    C1 9401   2.794   4.361   7.265
   88GLOH   H02 9402   2.761   4.461   7.292
   88GLOH   H08 9403   2.891   4.372   7.216
   88GLOH    C2 9404   2.815   4.281   7.395
   88GLOH   H04 9405   2.717   4.268   7.442
   88GLOH    O2 9406   2.870   4.150   7.367
   88GLOH   H05 9407   2.814   4.109   7.299
   88GLOH    C3 9408   2.903   4.361   7.493
   88GLOH   H06 9409   2.928   4.296   7.577
   88GLOH   H07 9410   2.844   4.443   7.533
   88GLOH    O3 9411   3.023   4.412   7.433
   88GLOH   H01 9412   3.077   4.335   7.401
   89GLOH   H03 9413   3.249   9.804   9.624
   89GLOH    O1 9414   3.339   9.770   9.648
   89GLOH    C1 9415   3.417   9.743   9.530
   89GLOH   H02 9416   3.392   9.644   9.492
   89GLOH   H08 9417   3.523   9.741   9.556
   89GLOH    C2 9418   3.398   9.846   9.416
   89GLOH   H04 9419   3.290   9.860   9.402
   89GLOH    O2 9420   3.457   9.975   9.445
   89GLOH   H05 9421   3.557   9.968   9.441
   89GLOH    C3 9422   3.454   9.789   9.284
   89GLOH   H06 9423   3.434   9.861   9.205
   89GLOH   H07 9424   3.396   9.699   9.260
   89GLOH    O3 9425   3.594   9.757   9.289
   89GLOH   H01 9426   3.641   9.825   9.342
   90GLOH   H03 9427   7.168   4.778   7.440
   90GLOH    O1 9428   7.240   4.755   7.504
   90GLOH    C1 9429   7.368   4.765   7.437
   90GLOH   H02 9430   7.396   4.668   7.398
   90GLOH   H08 9431   7.445   4.794   7.508
   90GLOH    C2 9432   7.369   4.866   7.320
   90GLOH   H04 9433   7.282   4.845   7.258
   90GLOH    O2 9434   7.360   5.003   7.366
   90GLOH   H05 9435   7.282   5.046   7.324
   90GLOH    C3 9436   7.494   4.846   7.232
   90GLOH   H06 9437   7.486   4.911   7.145
   90GLOH   H07 9438   7.493   4.744   7.196
   90GLOH    O3 9439   7.617   4.872   7.303
   90GLOH   H01 9440   7.602   4.952   7.358
   91GLOH   H03 9441   8.212   0.865   3.460
   91GLOH    O1 9442   8.218   0.769   3.484
   91GLOH    C1 9443   8.158   0.752   3.615
   91GLOH   H02 9444   8.210   0.814   3.687
   91GLOH   H08 9445   8.168   0.649   3.648
   91GLOH    C2 9446   8.008   0.790   3.619
   91GLOH   H04 9447   7.998   0.893   3.582
   91GLOH    O2 9448   7.928   0.703   3.536
   91GLOH   H05 9449   7.915   0.744   3.446
   91GLOH    C3 9450   7.955   0.788   3.764
   91GLOH   H06 9451   7.854   0.829   3.763
   91GLOH   H07 9452   8.015   0.858   3.822
   91GLOH    O3 9453   7.956   0.658   3.827
   91GLOH   H01 9454   7.960   0.587   3.759
   92GLOH   H03 9455   8.583   5.217   5.697
   92GLOH    O1 9456   8.577   5.149   5.768
   92GLOH    C1 9457   8.625   5.196   5.895
   92GLOH   H02 9458   8.734   5.201   5.894
   92GLOH   H08 9459   8.599   5.125   5.973
   92GLOH    C2 9460   8.573   5.336   5.936
   92GLOH   H04 9461   8.626   5.411   5.876
   92GLOH    O2 9462   8.431   5.348   5.912
   92GLOH   H05 9463   8.385   5.267   5.946
   92GLOH    C3 9464   8.603   5.363   6.085
   92GLOH   H06 9465   8.575   5.465   6.108
   92GLOH   H07 9466   8.711   5.356   6.100
   92GLOH    O3 9467   8.536   5.272   6.174
   92GLOH   H01 9468   8.457   5.236   6.128
   93GLOH   H03 9469   3.061   9.188   7.264
   93GLOH    O1 9470   3.015   9.117   7.212
   93GLOH    C1 9471   3.007   8.997   7.291
   93GLOH   H02 9472   2.986   9.022   7.395
   93GLOH   H08 9473   3.103   8.945   7.291
   93GLOH    C2 9474   2.898   8.900   7.243
   93GLOH   H04 9475   2.801   8.946   7.267
   93GLOH    O2 9476   2.905   8.877   7.101
   93GLOH   H05 9477   2.889   8.964   7.057
   93GLOH    C3 9478   2.907   8.768   7.324
   93GLOH   H06 9479   2.837   8.697   7.281
   93GLOH   H07 9480   2.873   8.788   7.425
   93GLOH    O3 9481   3.039   8.712   7.327
   93GLOH   H01 9482   3.036   8.620   7.290
   94GLOH   H03 9483   2.336   1.036   2.626
   94GLOH    O1 9484   2.333   0.941   2.653
   94GLOH    C1 9485   2.271   0.864   2.548
   94GLOH   H02 9486   2.176   0.907   2.519
   94GLOH   H08 9487   2.250   0.763   2.583
   94GLOH    C2 9488   2.363   0.856   2.424
   94GLOH   H04 9489   2.381   0.959   2.390
   94GLOH    O2 9490   2.489   0.795   2.457
   94GLOH   H05 9491   2.518   0.832   2.543
   94GLOH    C3 9492   2.292   0.782   2.308
   94GLOH   H06 9493   2.362   0.777   2.224
   94GLOH   H07 9494   2.208   0.843   2.276
   94GLOH    O3 9495   2.246   0.650   2.342
   94GLOH   H01 9496   2.310   0.604   2.401
   95GLOH   H03 9497   6.700   9.937   0.697
   95GLOH    O1 9498   6.719   0.013   0.636
   95GLOH    C1 9499   6.705   9.966   0.501
   95GLOH   H02 9500   6.763   9.874   0.487
   95GLOH   H08 9501   6.747   0.039   0.431
   95GLOH    C2 9502   6.560   9.937   0.460
   95GLOH   H04 9503   6.521   9.855   0.521
   95GLOH    O2 9504   6.475   0.053   0.476
   95GLOH   H05 9505   6.518   0.119   0.538
   95GLOH    C3 9506   6.557   9.894   0.312
   95GLOH   H06 9507   6.455   9.868   0.285
   95GLOH   H07 9508   6.618   9.805   0.301
   95GLOH    O3 9509   6.606  10.000   0.227
   95GLOH   H01 9510   6.611   0.082   0.281
   96GLOH   H03 9511   4.499   4.831   0.480
   96GLOH    O1 9512   4.528   4.839   0.575
   96GLOH    C1 9513   4.444   4.932   0.646
   96GLOH   H02 9514   4.493   5.029   0.652
   96GLOH   H08 9515   4.431   4.898   0.749
   96GLOH    C2 9516   4.304   4.954   0.585
   96GLOH   H04 9517   4.318   4.992   0.483
   96GLOH    O2 9518   4.226   4.833   0.577
   96GLOH   H05 9519   4.286   4.756   0.587
   96GLOH    C3 9520   4.228   5.062   0.664
   96GLOH   H06 9521   4.127   5.071   0.623
   96GLOH   H07 9522   4.276   5.158   0.645
   96GLOH    O3 9523   4.222   5.038   0.806
   96GLOH   H01 9524   4.165   4.959   0.825
   97GLOH   H03 9525   0.695   0.881   2.253
   97GLOH    O1 9526   0.793   0.887   2.268
   97GLOH    C1 9527   0.818   0.858   2.407
   97GLOH   H02 9528   0.732   0.886   2.468
   97GLOH   H08 9529   0.903   0.916   2.443
   97GLOH    C2 9530   0.848   0.709   2.433
   97GLOH   H04 9531   0.766   0.650   2.387
   97GLOH    O2 9532   0.972   0.669   2.371
   97GLOH   H05 9533   0.978   0.716   2.286
   97GLOH    C3 9534   0.846   0.679   2.584
   97GLOH   H06 9535   0.877   0.575   2.599
   97GLOH   H07 9536   0.743   0.686   2.618
   97GLOH    O3 9537   0.929   0.767   2.662
   97GLOH   H01 9538   1.023   0.739   2.649
   98GLOH   H03 9539   9.458   7.090   9.925
   98GLOH    O1 9540   9.453   7.033   9.846
   98GLOH    C1 9541   9.426   6.896   9.882
   98GLOH   H02 9542   9.502   6.831   9.838
   98GLOH   H08 9543   9.331   6.864   9.840
   98GLOH    C2 9544   9.424   6.868   0.034
   98GLOH   H04 9545   9.515   6.912   0.077
   98GLOH    O2 9546   9.310   6.929   0.099
   98GLOH   H05 9547   9.228   6.908   0.045
   98GLOH    C3 9548   9.430   6.716   0.060
   98GLOH   H06 9549   9.426   6.699   0.168
   98GLOH   H07 9550   9.526   6.680   0.025
   98GLOH    O3 9551   9.324   6.644   9.995
   98GLOH   H01 9552   9.245   6.642   0.054
   99GLOH   H03 9553   8.174   2.840   7.537
   99GLOH    O1 9554   8.213   2.898   7.608
   99GLOH    C1 9555   8.202   3.035   7.566
   99GLOH   H02 9556   8.229   3.046   7.461
   99GLOH   H08 9557   8.272   3.097   7.623
   99GLOH    C2 9558   8.059   3.090   7.586
   99GLOH   H04 9559   7.991   3.031   7.524
   99GLOH    O2 9560   8.020   3.077   7.724
   99GLOH   H05 9561   8.067   2.998   7.760
   99GLOH    C3 9562   8.051   3.236   7.540
   99GLOH   H06 9563   7.951   3.274   7.562
   99GLOH   H07 9564   8.061   3.239   7.431
   99GLOH    O3 9565   8.151   3.320   7.602
   99GLOH   H01 9566   8.126   3.330   7.696
  100GLOH   H03 9567   7.112   4.971   3.444
  100GLOH    O1 9568   7.151   4.880   3.438
  100GLOH    C1 9569   7.126   4.823   3.308
  100GLOH   H02 9570   7.026   4.781   3.303
  100GLOH   H08 9571   7.196   4.741   3.291
  100GLOH    C2 9572   7.140   4.921   3.189
  100GLOH   H04 9573   7.067   5.002   3.206
  100GLOH    O2 9574   7.271   4.982   3.180
  100GLOH   H05 9575   7.281   5.046   3.255
  100GLOH    C3 9576   7.100   4.852   3.057
  100GLOH   H06 9577   7.140   4.910   2.974
  100GLOH   H07 9578   6.992   4.858   3.048
  100GLOH    O3 9579   7.143   4.714   3.045
  100GLOH   H01 9580   7.238   4.710   3.017
  101GLOH   H03 9581   1.018   8.405   9.366
  101GLOH    O1 9582   0.933   8.417   9.316
  101GLOH    C1 9583   0.821   8.398   9.404
  101GLOH   H02 9584   0.835   8.311   9.467
  101GLOH   H08 9585   0.731   8.379   9.345
  101GLOH    C2 9586   0.795   8.520   9.494
  101GLOH   H04 9587   0.883   8.533   9.559
  101GLOH    O2 9588   0.775   8.640   9.417
  101GLOH   H05 9589   0.865   8.676   9.392
  101GLOH    C3 9590   0.674   8.493   9.586
  101GLOH   H06 9591   0.660   8.580   9.651
  101GLOH   H07 9592   0.698   8.410   9.651
  101GLOH    O3 9593   0.552   8.467   9.513
  101GLOH   H01 9594   0.526   8.555   9.475
  102GLOH   H03 9595   2.417   7.684   2.333
  102GLOH    O1 9596   2.514   7.671   2.322
  102GLOH    C1 9597   2.588   7.757   2.413
  102GLOH   H02 9598   2.654   7.822   2.355
  102GLOH   H08 9599   2.653   7.696   2.476
  102GLOH    C2 9600   2.503   7.847   2.505
  102GLOH   H04 9601   2.430   7.899   2.441
  102GLOH    O2 9602   2.429   7.772   2.604
  102GLOH   H05 9603   2.486   7.697   2.637
  102GLOH    C3 9604   2.590   7.956   2.570
  102GLOH   H06 9605   2.527   8.018   2.633
  102GLOH   H07 9606   2.628   8.021   2.491
  102GLOH    O3 9607   2.700   7.903   2.647
  102GLOH   H01 9608   2.666   7.883   2.738
  103GLOH   H03 9609   5.806   6.342   0.492
  103GLOH    O1 9610   5.769   6.336   0.401
  103GLOH    C1 9611   5.852   6.408   0.307
  103GLOH   H02 9612   5.957   6.381   0.318
  103GLOH   H08 9613   5.843   6.515   0.324
  103GLOH    C2 9614   5.807   6.377   0.163
  103GLOH   H04 9615   5.832   6.272   0.141
  103GLOH    O2 9616   5.664   6.395   0.158
  103GLOH   H05 9617   5.635   6.367   0.249
  103GLOH    C3 9618   5.881   6.467   0.062
  103GLOH   H06 9619   5.865   6.428   9.962
  103GLOH   H07 9620   5.988   6.461   0.082
  103GLOH    O3 9621   5.838   6.605   0.070
  103GLOH   H01 9622   5.747   6.602   0.107
  104GLOH   H03 9623   7.549   2.541   8.569
  104GLOH    O1 9624   7.532   2.460   8.514
  104GLOH    C1 9625   7.489   2.494   8.380
  104GLOH   H02 9626   7.388   2.533   8.383
  104GLOH   H08 9627   7.486   2.404   8.319
  104GLOH    C2 9628   7.577   2.598   8.309
  104GLOH   H04 9629   7.583   2.687   8.373
  104GLOH    O2 9630   7.711   2.549   8.285
  104GLOH   H05 9631   7.739   2.497   8.363
  104GLOH    C3 9632   7.507   2.639   8.178
  104GLOH   H06 9633   7.553   2.729   8.140
  104GLOH   H07 9634   7.404   2.666   8.202
  104GLOH    O3 9635   7.507   2.534   8.079
  104GLOH   H01 9636   7.517   2.578   7.991
  105GLOH   H03 9637   0.732   9.322   5.520
  105GLOH    O1 9638   0.714   9.319   5.422
  105GLOH    C1 9639   0.839   9.307   5.352
  105GLOH   H02 9640   0.822   9.288   5.246
  105GLOH   H08 9641   0.895   9.222   5.389
  105GLOH    C2 9642   0.926   9.433   5.367
  105GLOH   H04 9643   0.859   9.520   5.358
  105GLOH    O2 9644   0.989   9.440   5.497
  105GLOH   H05 9645   0.997   9.349   5.536
  105GLOH    C3 9646   1.027   9.445   5.252
  105GLOH   H06 9647   1.085   9.536   5.265
  105GLOH   H07 9648   0.972   9.455   5.158
  105GLOH    O3 9649   1.115   9.332   5.244
  105GLOH   H01 9650   1.172   9.331   5.325
  106GLOH   H03 9651   0.720   9.695   3.475
  106GLOH    O1 9652   0.683   9.784   3.490
  106GLOH    C1 9653   0.549   9.791   3.439
  106GLOH   H02 9654   0.550   9.802   3.331
  106GLOH   H08 9655   0.500   9.881   3.478
  106GLOH    C2 9656   0.461   9.669   3.474
  106GLOH   H04 9657   0.508   9.580   3.430
  106GLOH    O2 9658   0.448   9.648   3.617
  106GLOH   H05 9659   0.487   9.727   3.666
  106GLOH    C3 9660   0.322   9.684   3.409
  106GLOH   H06 9661   0.262   9.597   3.435
  106GLOH   H07 9662   0.335   9.683   3.301
  106GLOH    O3 9663   0.254   9.805   3.449
  106GLOH   H01 9664   0.225   9.796   3.543
  107GLOH   H03 9665   1.412   7.626   4.651
  107GLOH    O1 9666   1.482   7.664   4.710
  107GLOH    C1 9667   1.456   7.628   4.847
  107GLOH   H02 9668   1.499   7.703   4.914
  107GLOH   H08 9669   1.506   7.534   4.871
  107GLOH    C2 9670   1.306   7.613   4.882
  107GLOH   H04 9671   1.254   7.696   4.832
  107GLOH    O2 9672   1.248   7.491   4.832
  107GLOH   H05 9673   1.313   7.415   4.837
  107GLOH    C3 9674   1.282   7.633   5.033
  107GLOH   H06 9675   1.179   7.604   5.056
  107GLOH   H07 9676   1.289   7.740   5.054
  107GLOH    O3 9677   1.374   7.560   5.116
  107GLOH   H01 9678   1.349   7.464   5.115
  108GLOH   H03 9679   9.080   3.629   7.484
  108GLOH    O1 9680   8.990   3.661   7.454
  108GLOH    C1 9681   8.942   3.582   7.343
  108GLOH   H02 9682   9.024   3.558   7.276
  108GLOH   H08 9683   8.869   3.640   7.286
  108GLOH    C2 9684   8.876   3.451   7.389
  108GLOH   H04 9685   8.949   3.396   7.450
  108GLOH    O2 9686   8.759   3.478   7.469
  108GLOH   H05 9687   8.787   3.536   7.543
  108GLOH    C3 9688   8.840   3.360   7.269
  108GLOH   H06 9689   8.814   3.261   7.306
  108GLOH   H07 9690   8.929   3.349   7.207
  108GLOH    O3 9691   8.732   3.412   7.189
  108GLOH   H01 9692   8.668   3.452   7.252
  109GLOH   H03 9693   6.904   9.706   5.394
  109GLOH    O1 9694   6.950   9.717   5.307
  109GLOH    C1 9695   7.092   9.701   5.331
  109GLOH   H02 9696   7.120   9.753   5.423
  109GLOH   H08 9697   7.149   9.747   5.251
  109GLOH    C2 9698   7.133   9.553   5.343
  109GLOH   H04 9699   7.063   9.504   5.412
  109GLOH    O2 9700   7.126   9.487   5.215
  109GLOH   H05 9701   7.037   9.506   5.173
  109GLOH    C3 9702   7.274   9.540   5.404
  109GLOH   H06 9703   7.294   9.434   5.420
  109GLOH   H07 9704   7.273   9.587   5.502
  109GLOH    O3 9705   7.378   9.598   5.323
  109GLOH   H01 9706   7.366   9.571   5.229
  110GLOH   H03 9707   8.890   2.645   6.746
  110GLOH    O1 9708   8.858   2.679   6.658
  110GLOH    C1 9709   8.850   2.823   6.662
  110GLOH   H02 9710   8.940   2.866   6.705
  110GLOH   H08 9711   8.767   2.855   6.726
  110GLOH    C2 9712   8.829   2.885   6.522
  110GLOH   H04 9713   8.909   2.844   6.458
  110GLOH    O2 9714   8.702   2.850   6.464
  110GLOH   H05 9715   8.636   2.840   6.538
  110GLOH    C3 9716   8.849   3.038   6.524
  110GLOH   H06 9717   8.831   3.076   6.423
  110GLOH   H07 9718   8.954   3.058   6.547
  110GLOH    O3 9719   8.764   3.105   6.618
  110GLOH   H01 9720   8.670   3.097   6.587
  111GLOH   H03 9721   1.515   8.877   8.964
  111GLOH    O1 9722   1.569   8.959   8.951
  111GLOH    C1 9723   1.621   8.963   8.817
  111GLOH   H02 9724   1.658   8.864   8.788
  111GLOH   H08 9725   1.706   9.031   8.812
  111GLOH    C2 9726   1.515   9.008   8.714
  111GLOH   H04 9727   1.432   8.937   8.718
  111GLOH    O2 9728   1.466   9.140   8.747
  111GLOH   H05 9729   1.456   9.142   8.844
  111GLOH    C3 9730   1.573   9.004   8.572
  111GLOH   H06 9731   1.498   9.038   8.502
  111GLOH   H07 9732   1.594   8.900   8.547
  111GLOH    O3 9733   1.693   9.083   8.559
  111GLOH   H01 9734   1.672   9.175   8.583
  112GLOH   H03 9735   2.583   0.199   0.601
  112GLOH    O1 9736   2.648   0.141   0.555
  112GLOH    C1 9737   2.641   0.157   0.412
  112GLOH   H02 9738   2.597   0.254   0.386
  112GLOH   H08 9739   2.575   0.081   0.369
  112GLOH    C2 9740   2.779   0.147   0.343
  112GLOH   H04 9741   2.830   0.244   0.355
  112GLOH    O2 9742   2.862   0.043   0.401
  112GLOH   H05 9743   2.874   0.067   0.497
  112GLOH    C3 9744   2.760   0.121   0.192
  112GLOH   H06 9745   2.859   0.117   0.146
  112GLOH   H07 9746   2.709   0.207   0.149
  112GLOH    O3 9747   2.687   0.000   0.166
  112GLOH   H01 9748   2.711   9.937   0.237
  113GLOH   H03 9749   2.459   4.771   3.890
  113GLOH    O1 9750   2.363   4.758   3.865
  113GLOH    C1 9751   2.336   4.820   3.738
  113GLOH   H02 9752   2.406   4.901   3.719
  113GLOH   H08 9753   2.236   4.865   3.740
  113GLOH    C2 9754   2.342   4.722   3.619
  113GLOH   H04 9755   2.446   4.684   3.613
  113GLOH    O2 9756   2.253   4.609   3.634
  113GLOH   H05 9757   2.158   4.640   3.623
  113GLOH    C3 9758   2.313   4.796   3.487
  113GLOH   H06 9759   2.307   4.722   3.408
  113GLOH   H07 9760   2.398   4.861   3.464
  113GLOH    O3 9761   2.191   4.873   3.490
  113GLOH   H01 9762   2.120   4.815   3.525
  114GLOH   H03 9763   3.855   7.966   6.006
  114GLOH    O1 9764   3.848   7.888   6.065
  114GLOH    C1 9765   3.936   7.910   6.178
  114GLOH   H02 9766   3.954   8.017   6.191
  114GLOH   H08 9767   4.033   7.865   6.159
  114GLOH    C2 9768   3.883   7.856   6.313
  114GLOH   H04 9769   3.789   7.910   6.335
  114GLOH    O2 9770   3.856   7.714   6.313
  114GLOH   H05 9771   3.942   7.663   6.316
  114GLOH    C3 9772   3.984   7.893   6.423
  114GLOH   H06 9773   3.953   7.846   6.516
  114GLOH   H07 9774   3.980   8.001   6.439
  114GLOH    O3 9775   4.119   7.854   6.389
  114GLOH   H01 9776   4.118   7.758   6.364
  115GLOH   H03 9777   6.372   3.613   7.591
  115GLOH    O1 9778   6.433   3.673   7.542
  115GLOH    C1 9779   6.463   3.790   7.620
  115GLOH   H02 9780   6.377   3.819   7.680
  115GLOH   H08 9781   6.486   3.874   7.554
  115GLOH    C2 9782   6.583   3.769   7.715
  115GLOH   H04 9783   6.554   3.692   7.789
  115GLOH    O2 9784   6.698   3.721   7.642
  115GLOH   H05 9785   6.669   3.639   7.596
  115GLOH    C3 9786   6.614   3.898   7.792
  115GLOH   H06 9787   6.694   3.877   7.863
  115GLOH   H07 9788   6.526   3.924   7.850
  115GLOH    O3 9789   6.650   4.009   7.708
  115GLOH   H01 9790   6.736   4.046   7.742
  116GLOH   H03 9791   4.201   2.694   7.955
  116GLOH    O1 9792   4.270   2.689   7.884
  116GLOH    C1 9793   4.230   2.775   7.776
  116GLOH   H02 9794   4.308   2.775   7.700
  116GLOH   H08 9795   4.219   2.878   7.811
  116GLOH    C2 9796   4.099   2.731   7.709
  116GLOH   H04 9797   4.108   2.623   7.687
  116GLOH    O2 9798   3.985   2.749   7.797
  116GLOH   H05 9799   4.010   2.723   7.890
  116GLOH    C3 9800   4.083   2.803   7.574
  116GLOH   H06 9801   3.984   2.783   7.534
  116GLOH   H07 9802   4.154   2.759   7.504
  116GLOH    O3 9803   4.107   2.945   7.581
  116GLOH   H01 9804   4.034   2.991   7.533
  117GLOH   H03 9805   2.417   2.082   9.074
  117GLOH    O1 9806   2.362   2.058   9.152
  117GLOH    C1 9807   2.253   2.151   9.166
  117GLOH   H02 9808   2.291   2.251   9.190
  117GLOH   H08 9809   2.188   2.122   9.249
  117GLOH    C2 9810   2.166   2.161   9.039
  117GLOH   H04 9811   2.235   2.179   8.954
  117GLOH    O2 9812   2.094   2.039   9.013
  117GLOH   H05 9813   2.058   2.044   8.920
  117GLOH    C3 9814   2.071   2.283   9.045
  117GLOH   H06 9815   2.017   2.288   8.951
  117GLOH   H07 9816   2.133   2.373   9.051
  117GLOH    O3 9817   1.979   2.280   9.156
  117GLOH   H01 9818   1.920   2.200   9.150
  118GLOH   H03 9819   6.633   7.111   3.433
  118GLOH    O1 9820   6.618   7.018   3.402
  118GLOH    C1 9821   6.554   7.023   3.273
  118GLOH   H02 9822   6.510   7.121   3.256
  118GLOH   H08 9823   6.472   6.951   3.270
  118GLOH    C2 9824   6.650   6.990   3.157
  118GLOH   H04 9825   6.746   7.038   3.181
  118GLOH    O2 9826   6.676   6.849   3.141
  118GLOH   H05 9827   6.589   6.799   3.142
  118GLOH    C3 9828   6.605   7.056   3.025
  118GLOH   H06 9829   6.649   7.001   2.942
  118GLOH   H07 9830   6.647   7.156   3.021
  118GLOH    O3 9831   6.463   7.062   3.007
  118GLOH   H01 9832   6.439   7.025   2.918
  119GLOH   H03 9833   7.317   6.712   3.913
  119GLOH    O1 9834   7.255   6.787   3.893
  119GLOH    C1 9835   7.337   6.898   3.850
  119GLOH   H02 9836   7.396   6.868   3.764
  119GLOH   H08 9837   7.406   6.926   3.929
  119GLOH    C2 9838   7.256   7.022   3.809
  119GLOH   H04 9839   7.182   6.991   3.735
  119GLOH    O2 9840   7.188   7.083   3.921
  119GLOH   H05 9841   7.090   7.070   3.910
  119GLOH    C3 9842   7.352   7.122   3.742
  119GLOH   H06 9843   7.294   7.205   3.701
  119GLOH   H07 9844   7.399   7.073   3.657
  119GLOH    O3 9845   7.453   7.171   3.832
  119GLOH   H01 9846   7.408   7.200   3.914
  120GLOH   H03 9847   7.714   4.641   2.037
  120GLOH    O1 9848   7.668   4.619   2.122
  120GLOH    C1 9849   7.761   4.621   2.231
  120GLOH   H02 9850   7.829   4.535   2.224
  120GLOH   H08 9851   7.708   4.610   2.326
  120GLOH    C2 9852   7.848   4.749   2.239
  120GLOH   H04 9853   7.914   4.748   2.151
  120GLOH    O2 9854   7.770   4.870   2.236
  120GLOH   H05 9855   7.796   4.924   2.157
  120GLOH    C3 9856   7.938   4.742   2.364
  120GLOH   H06 9857   7.999   4.832   2.366
  120GLOH   H07 9858   8.007   4.659   2.352
  120GLOH    O3 9859   7.866   4.728   2.487
  120GLOH   H01 9860   7.845   4.819   2.520
  121ACOH    H4 9861   1.298   1.137   0.226
  121ACOH    O2 9862   1.356   1.206   0.268
  121ACOH    C2 9863   1.433   1.259   0.171
  121ACOH    O1 9864   1.408   1.259   0.052
  121ACOH    C1 9865   1.544   1.339   0.228
  121ACOH    H1 9866   1.638   1.300   0.191
  121ACOH    H2 9867   1.544   1.335   0.336
  121ACOH    H3 9868   1.534   1.443   0.197
  122ACOH    H4 9869   1.605   1.025   1.700
  122ACOH    O2 9870   1.623   0.975   1.786
  122ACOH    C2 9871   1.519   0.890   1.800
  122ACOH    O1 9872   1.424   0.877   1.725
  122ACOH    C1 9873   1.536   0.809   1.923
  122ACOH    H1 9874   1.528   0.874   2.009
  122ACOH    H2 9875   1.634   0.762   1.922
  122ACOH    H3 9876   1.460   0.732   1.929
  123ACOH    H4 9877   0.720   0.174   1.638
  123ACOH    O2 9878   0.669   0.241   1.583
  123ACOH    C2 9879   0.689   0.207   1.454
  123ACOH    O1 9880   0.739   0.104   1.414
  123ACOH    C1 9881   0.630   0.309   1.365
  123ACOH    H1 9882   0.636   0.276   1.261
  123ACOH    H2 9883   0.685   0.402   1.374
  123ACOH    H3 9884   0.526   0.326   1.390
  124ACOH    H4 9885   1.238   1.509   0.111
  124ACOH    O2 9886   1.306   1.548   0.171
  124ACOH    C2 9887   1.242   1.591   0.281
  124ACOH    O1 9888   1.121   1.600   0.295
  124ACOH    C1 9889   1.336   1.632   0.387
  124ACOH    H1 9890   1.439   1.625   0.352
  124ACOH    H2 9891   1.325   1.568   0.474
  124ACOH    H3 9892   1.316   1.735   0.417
  125ACOH    H4 9893   1.337   1.140   2.024
  125ACOH    O2 9894   1.377   1.225   2.057
  125ACOH    C2 9895   1.460   1.271   1.961
  125ACOH    O1 9896   1.463   1.237   1.844
  125ACOH    C1 9897   1.542   1.384   2.012
  125ACOH    H1 9898   1.647   1.363   1.994
  125ACOH    H2 9899   1.527   1.398   2.118
  125ACOH    H3 9900   1.514   1.475   1.960
  126ACOH    H4 9901   1.571   1.026   3.528
  126ACOH    O2 9902   1.589   0.978   3.616
  126ACOH    C2 9903   1.490   0.888   3.630
  126ACOH    O1 9904   1.401   0.863   3.551
  126ACOH    C1 9905   1.508   0.811   3.756
  126ACOH    H1 9906   1.496   0.878   3.840
  126ACOH    H2 9907   1.607   0.767   3.759
  126ACOH    H3 9908   1.433   0.733   3.764
  127ACOH    H4 9909   0.733   0.182   3.465
  127ACOH    O2 9910   0.724   0.277   3.435
  127ACOH    C2 9911   0.682   0.272   3.307
  127ACOH    O1 9912   0.651   0.172   3.245
  127ACOH    C1 9913   0.669   0.409   3.250
  127ACOH    H1 9914   0.628   0.405   3.149
  127ACOH    H2 9915   0.767   0.455   3.247
  127ACOH    H3 9916   0.603   0.469   3.313
  128ACOH    H4 9917   1.279   1.605   1.973
  128ACOH    O2 9918   1.341   1.635   2.045
  128ACOH    C2 9919   1.288   1.596   2.162
  128ACOH    O1 9920   1.171   1.567   2.181
  128ACOH    C1 9921   1.382   1.619   2.274
  128ACOH    H1 9922   1.483   1.636   2.237
  128ACOH    H2 9923   1.383   1.532   2.339
  128ACOH    H3 9924   1.350   1.705   2.331
  129ACOH    H4 9925   1.309   1.138   3.859
  129ACOH    O2 9926   1.357   1.216   3.899
  129ACOH    C2 9927   1.439   1.265   3.804
  129ACOH    O1 9928   1.431   1.244   3.684
  129ACOH    C1 9929   1.529   1.369   3.858
  129ACOH    H1 9930   1.631   1.347   3.829
  129ACOH    H2 9931   1.524   1.372   3.967
  129ACOH    H3 9932   1.501   1.467   3.819
  130ACOH    H4 9933   1.594   0.995   5.363
  130ACOH    O2 9934   1.615   0.946   5.447
  130ACOH    C2 9935   1.508   0.870   5.476
  130ACOH    O1 9936   1.411   0.852   5.406
  130ACOH    C1 9937   1.528   0.801   5.606
  130ACOH    H1 9938   1.528   0.875   5.686
  130ACOH    H2 9939   1.623   0.749   5.606
  130ACOH    H3 9940   1.448   0.730   5.625
  131ACOH    H4 9941   0.693   0.256   5.330
  131ACOH    O2 9942   0.647   0.334   5.289
  131ACOH    C2 9943   0.690   0.341   5.161
  131ACOH    O1 9944   0.769   0.265   5.107
  131ACOH    C1 9945   0.627   0.455   5.091
  131ACOH    H1 9946   0.660   0.461   4.988
  131ACOH    H2 9947   0.653   0.548   5.142
  131ACOH    H3 9948   0.519   0.443   5.093
  132ACOH    H4 9949   1.273   1.616   3.801
  132ACOH    O2 9950   1.335   1.646   3.873
  132ACOH    C2 9951   1.285   1.599   3.990
  132ACOH    O1 9952   1.167   1.578   4.011
  132ACOH    C1 9953   1.382   1.615   4.100
  132ACOH    H1 9954   1.483   1.627   4.062
  132ACOH    H2 9955   1.380   1.526   4.163
  132ACOH    H3 9956   1.356   1.701   4.161
  133ACOH    H4 9957   1.302   1.117   5.699
  133ACOH    O2 9958   1.332   1.206   5.732
  133ACOH    C2 9959   1.425   1.254   5.647
  133ACOH    O1 9960   1.473   1.195   5.552
  133ACOH    C1 9961   1.479   1.382   5.696
  133ACOH    H1 9962   1.581   1.368   5.732
  133ACOH    H2 9963   1.418   1.422   5.777
  133ACOH    H3 9964   1.481   1.454   5.615
  134ACOH    H4 9965   1.592   0.999   7.228
  134ACOH    O2 9966   1.608   0.955   7.316
  134ACOH    C2 9967   1.503   0.873   7.336
  134ACOH    O1 9968   1.402   0.866   7.268
  134ACOH    C1 9969   1.522   0.793   7.459
  134ACOH    H1 9970   1.520   0.857   7.546
  134ACOH    H2 9971   1.618   0.742   7.455
  134ACOH    H3 9972   1.444   0.718   7.470
  135ACOH    H4 9973   0.755   0.268   7.206
  135ACOH    O2 9974   0.722   0.352   7.163
  135ACOH    C2 9975   0.713   0.325   7.032
  135ACOH    O1 9976   0.720   0.216   6.979
  135ACOH    C1 9977   0.683   0.449   6.957
  135ACOH    H1 9978   0.666   0.427   6.852
  135ACOH    H2 9979   0.767   0.517   6.966
  135ACOH    H3 9980   0.595   0.497   6.999
  136ACOH    H4 9981   1.315   1.131   7.547
  136ACOH    O2 9982   1.354   1.215   7.583
  136ACOH    C2 9983   1.441   1.261   7.490
  136ACOH    O1 9984   1.445   1.231   7.372
  136ACOH    C1 9985   1.523   1.372   7.544
  136ACOH    H1 9986   1.628   1.352   7.526
  136ACOH    H2 9987   1.509   1.382   7.652
  136ACOH    H3 9988   1.496   1.465   7.496
  137ACOH    H4 9989   1.583   0.997   9.076
  137ACOH    O2 9990   1.601   0.953   9.164
  137ACOH    C2 9991   1.498   0.868   9.185
  137ACOH    O1 9992   1.397   0.858   9.118
  137ACOH    C1 9993   1.520   0.789   9.308
  137ACOH    H1 9994   1.517   0.855   9.394
  137ACOH    H2 9995   1.616   0.740   9.303
  137ACOH    H3 9996   1.442   0.714   9.320
  138ACOH    H4 9997   0.747   0.199   9.003
  138ACOH    O2 9998   0.703   0.286   8.980
  138ACOH    C2 9999   0.742   0.316   8.855
  138ACOH    O110000   0.807   0.246   8.780
  138ACOH    C110001   0.691   0.450   8.817
  138ACOH    H110002   0.715   0.472   8.713
  138ACOH    H210003   0.735   0.526   8.880
  138ACOH    H310004   0.583   0.453   8.829
  139ACOH    H410005   1.258   1.616   7.503
  139ACOH    O210006   1.325   1.629   7.576
  139ACOH    C210007   1.264   1.601   7.693
  139ACOH    O110008   1.144   1.598   7.712
  139ACOH    C110009   1.360   1.601   7.805
  139ACOH    H110010   1.463   1.604   7.768
  139ACOH    H210011   1.347   1.511   7.864
  139ACOH    H310012   1.343   1.688   7.868
  140ACOH    H410013   1.313   1.125   9.399
  140ACOH    O210014   1.351   1.211   9.432
  140ACOH    C210015   1.435   1.257   9.338
  140ACOH    O110016   1.437   1.225   9.221
  140ACOH    C110017   1.514   1.372   9.389
  140ACOH    H110018   1.619   1.357   9.365
  140ACOH    H210019   1.504   1.381   9.497
  140ACOH    H310020   1.480   1.464   9.342
  141ACOH    H410021   1.264   1.625   9.338
  141ACOH    O210022   1.324   1.656   9.412
  141ACOH    C210023   1.279   1.596   9.524
  141ACOH    O110024   1.167   1.552   9.542
  141ACOH    C110025   1.374   1.615   9.637
  141ACOH    H110026   1.472   1.645   9.600
  141ACOH    H210027   1.384   1.522   9.692
  141ACOH    H310028   1.336   1.692   9.704
  142ACOH    H410029   1.221   2.935   0.234
  142ACOH    O210030   1.295   2.995   0.265
  142ACOH    C210031   1.349   3.051   0.156
  142ACOH    O110032   1.310   3.038   0.041
  142ACOH    C110033   1.462   3.139   0.192
  142ACOH    H110034   1.541   3.081   0.237
  142ACOH    H210035   1.429   3.214   0.263
  142ACOH    H310036   1.502   3.188   0.103
  143ACOH    H410037   0.731   1.986   1.625
  143ACOH    O210038   0.698   2.068   1.577
  143ACOH    C210039   0.725   2.051   1.447
  143ACOH    O110040   0.780   1.955   1.396
  143ACOH    C110041   0.678   2.168   1.369
  143ACOH    H110042   0.700   2.156   1.263
  143ACOH    H210043   0.726   2.258   1.406
  143ACOH    H310044   0.570   2.178   1.381
  144ACOH    H410045   1.281   3.387   0.078
  144ACOH    O210046   1.347   3.420   0.145
  144ACOH    C210047   1.276   3.447   0.256
  144ACOH    O110048   1.155   3.455   0.264
  144ACOH    C110049   1.363   3.468   0.374
  144ACOH    H110050   1.468   3.466   0.347
  144ACOH    H210051   1.344   3.389   0.447
  144ACOH    H310052   1.341   3.564   0.420
  145ACOH    H410053   1.592   2.848   3.560
  145ACOH    O210054   1.608   2.795   3.644
  145ACOH    C210055   1.502   2.714   3.657
  145ACOH    O110056   1.402   2.713   3.588
  145ACOH    C110057   1.518   2.625   3.775
  145ACOH    H110058   1.518   2.685   3.865
  145ACOH    H210059   1.612   2.572   3.768
  145ACOH    H310060   1.437   2.553   3.780
  146ACOH    H410061   0.760   2.006   3.465
  146ACOH    O210062   0.733   2.090   3.417
  146ACOH    C210063   0.735   2.061   3.285
  146ACOH    O110064   0.769   1.956   3.235
  146ACOH    C110065   0.695   2.180   3.206
  146ACOH    H110066   0.700   2.158   3.100
  146ACOH    H210067   0.760   2.263   3.229
  146ACOH    H310068   0.592   2.207   3.232
  147ACOH    H410069   1.320   2.973   3.878
  147ACOH    O210070   1.360   3.057   3.916
  147ACOH    C210071   1.460   3.094   3.834
  147ACOH    O110072   1.472   3.065   3.716
  147ACOH    C110073   1.542   3.202   3.895
  147ACOH    H110074   1.647   3.179   3.883
  147ACOH    H210075   1.522   3.209   4.002
  147ACOH    H310076   1.520   3.297   3.849
  148ACOH    H410077   1.300   3.432   3.797
  148ACOH    O210078   1.339   3.473   3.880
  148ACOH    C210079   1.260   3.433   3.981
  148ACOH    O110080   1.139   3.424   3.974
  148ACOH    C110081   1.329   3.448   4.112
  148ACOH    H110082   1.437   3.454   4.098
  148ACOH    H210083   1.308   3.362   4.175
  148ACOH    H310084   1.295   3.538   4.162
  149ACOH    H410085   1.595   2.859   7.236
  149ACOH    O210086   1.609   2.814   7.323
  149ACOH    C210087   1.503   2.731   7.338
  149ACOH    O110088   1.403   2.728   7.268
  149ACOH    C110089   1.518   2.647   7.458
  149ACOH    H110090   1.516   2.709   7.547
  149ACOH    H210091   1.613   2.594   7.455
  149ACOH    H310092   1.438   2.574   7.465
  150ACOH    H410093   0.744   2.008   7.204
  150ACOH    O210094   0.722   2.098   7.164
  150ACOH    C210095   0.726   2.082   7.031
  150ACOH    O110096   0.750   1.978   6.971
  150ACOH    C110097   0.692   2.208   6.962
  150ACOH    H110098   0.692   2.195   6.854
  150ACOH    H210099   0.766   2.284   6.987
  150ACOH    H310100   0.594   2.243   6.994
  151ACOH    H410101   1.327   2.994   7.555
  151ACOH    O210102   1.371   3.076   7.591
  151ACOH    C210103   1.462   3.117   7.501
  151ACOH    O110104   1.464   3.089   7.382
  151ACOH    C110105   1.549   3.223   7.557
  151ACOH    H110106   1.653   3.198   7.538
  151ACOH    H210107   1.535   3.232   7.664
  151ACOH    H310108   1.526   3.319   7.511
  152ACOH    H410109   1.619   2.831   9.073
  152ACOH    O210110   1.630   2.789   9.163
  152ACOH    C210111   1.517   2.718   9.184
  152ACOH    O110112   1.415   2.722   9.118
  152ACOH    C110113   1.527   2.640   9.309
  152ACOH    H110114   1.520   2.706   9.394
  152ACOH    H210115   1.622   2.587   9.312
  152ACOH    H310116   1.447   2.567   9.315
  153ACOH    H410117   0.758   1.986   8.974
  153ACOH    O210118   0.722   2.065   8.923
  153ACOH    C210119   0.737   2.037   8.793
  153ACOH    O110120   0.777   1.933   8.744
  153ACOH    C110121   0.694   2.153   8.711
  153ACOH    H110122   0.707   2.132   8.605
  153ACOH    H210123   0.752   2.241   8.737
  153ACOH    H310124   0.589   2.173   8.730
  154ACOH    H410125   1.288   3.449   7.524
  154ACOH    O210126   1.348   3.475   7.599
  154ACOH    C210127   1.285   3.442   7.713
  154ACOH    O110128   1.165   3.427   7.727
  154ACOH    C110129   1.375   3.456   7.830
  154ACOH    H110130   1.479   3.461   7.798
  154ACOH    H210131   1.363   3.370   7.896
  154ACOH    H310132   1.350   3.546   7.885
  155ACOH    H410133   1.343   2.975   9.409
  155ACOH    O210134   1.386   3.057   9.445
  155ACOH    C210135   1.461   3.111   9.347
  155ACOH    O110136   1.464   3.080   9.230
  155ACOH    C110137   1.538   3.228   9.398
  155ACOH    H110138   1.644   3.214   9.378
  155ACOH    H210139   1.525   3.239   9.506
  155ACOH    H310140   1.504   3.319   9.349
  156ACOH    H410141   1.266   3.470   9.345
  156ACOH    O210142   1.330   3.498   9.416
  156ACOH    C210143   1.280   3.450   9.532
  156ACOH    O110144   1.163   3.421   9.552
  156ACOH    C110145   1.376   3.466   9.643
  156ACOH    H110146   1.476   3.485   9.606
  156ACOH    H210147   1.378   3.374   9.703
  156ACOH    H310148   1.345   3.548   9.707
  157ACOH    H410149   1.305   4.800   0.240
  157ACOH    O210150   1.345   4.882   0.281
  157ACOH    C210151   1.399   4.952   0.179
  157ACOH    O110152   1.360   4.949   0.064
  157ACOH    C110153   1.490   5.056   0.231
  157ACOH    H110154   1.583   5.009   0.263
  157ACOH    H210155   1.446   5.104   0.318
  157ACOH    H310156   1.511   5.131   0.156
  158ACOH    H410157   1.586   4.702   1.708
  158ACOH    O210158   1.598   4.656   1.796
  158ACOH    C210159   1.491   4.574   1.810
  158ACOH    O110160   1.391   4.571   1.741
  158ACOH    C110161   1.506   4.492   1.933
  158ACOH    H110162   1.502   4.557   2.020
  158ACOH    H210163   1.601   4.440   1.931
  158ACOH    H310164   1.426   4.419   1.940
  159ACOH    H410165   0.752   3.866   1.602
  159ACOH    O210166   0.720   3.951   1.560
  159ACOH    C210167   0.734   3.936   1.427
  159ACOH    O110168   0.761   3.833   1.368
  159ACOH    C110169   0.704   4.063   1.357
  159ACOH    H110170   0.710   4.051   1.250
  159ACOH    H210171   0.774   4.140   1.389
  159ACOH    H310172   0.603   4.095   1.383
  160ACOH    H410173   1.226   5.234   0.114
  160ACOH    O210174   1.286   5.282   0.178
  160ACOH    C210175   1.222   5.286   0.297
  160ACOH    O110176   1.103   5.268   0.313
  160ACOH    C110177   1.310   5.336   0.405
  160ACOH    H110178   1.413   5.344   0.370
  160ACOH    H210179   1.308   5.268   0.489
  160ACOH    H310180   1.276   5.434   0.437
  161ACOH    H410181   1.317   4.848   2.022
  161ACOH    O210182   1.357   4.933   2.054
  161ACOH    C210183   1.448   4.971   1.962
  161ACOH    O110184   1.446   4.943   1.844
  161ACOH    C110185   1.533   5.081   2.014
  161ACOH    H110186   1.637   5.062   1.987
  161ACOH    H210187   1.527   5.086   2.122
  161ACOH    H310188   1.502   5.175   1.971
  162ACOH    H410189   0.722   3.839   3.472
  162ACOH    O210190   0.698   3.921   3.420
  162ACOH    C210191   0.713   3.891   3.290
  162ACOH    O110192   0.754   3.786   3.244
  162ACOH    C110193   0.676   4.007   3.205
  162ACOH    H110194   0.691   3.985   3.100
  162ACOH    H210195   0.736   4.093   3.232
  162ACOH    H310196   0.571   4.031   3.221
  163ACOH    H410197   1.252   5.314   1.967
  163ACOH    O210198   1.314   5.342   2.040
  163ACOH    C210199   1.261   5.295   2.155
  163ACOH    O110200   1.142   5.279   2.175
  163ACOH    C110201   1.358   5.306   2.267
  163ACOH    H110202   1.460   5.313   2.229
  163ACOH    H210203   1.350   5.218   2.331
  163ACOH    H310204   1.336   5.395   2.326
  164ACOH    H410205   1.218   4.805   3.903
  164ACOH    O210206   1.243   4.901   3.895
  164ACOH    C210207   1.356   4.908   3.823
  164ACOH    O110208   1.396   4.826   3.743
  164ACOH    C110209   1.411   5.046   3.825
  164ACOH    H110210   1.519   5.043   3.831
  164ACOH    H210211   1.373   5.101   3.911
  164ACOH    H310212   1.382   5.099   3.734
  165ACOH    H410213   1.605   4.700   5.388
  165ACOH    O210214   1.615   4.653   5.476
  165ACOH    C210215   1.509   4.570   5.485
  165ACOH    O110216   1.415   4.562   5.408
  165ACOH    C110217   1.519   4.488   5.608
  165ACOH    H110218   1.519   4.552   5.695
  165ACOH    H210219   1.610   4.429   5.607
  165ACOH    H310220   1.434   4.421   5.616
  166ACOH    H410221   0.759   3.857   5.289
  166ACOH    O210222   0.727   3.940   5.241
  166ACOH    C210223   0.734   3.915   5.110
  166ACOH    O110224   0.762   3.809   5.057
  166ACOH    C110225   0.696   4.036   5.033
  166ACOH    H110226   0.701   4.016   4.926
  166ACOH    H210227   0.764   4.117   5.057
  166ACOH    H310228   0.595   4.065   5.059
  167ACOH    H410229   1.327   4.852   5.699
  167ACOH    O210230   1.369   4.934   5.738
  167ACOH    C210231   1.464   4.974   5.651
  167ACOH    O110232   1.469   4.948   5.532
  167ACOH    C110233   1.547   5.082   5.710
  167ACOH    H110234   1.651   5.064   5.687
  167ACOH    H210235   1.536   5.084   5.818
  167ACOH    H310236   1.517   5.178   5.670
  168ACOH    H410237   1.596   4.700   7.247
  168ACOH    O210238   1.611   4.653   7.334
  168ACOH    C210239   1.506   4.568   7.348
  168ACOH    O110240   1.405   4.565   7.280
  168ACOH    C110241   1.527   4.481   7.466
  168ACOH    H110242   1.528   4.540   7.556
  168ACOH    H210243   1.621   4.428   7.456
  168ACOH    H310244   1.447   4.407   7.473
  169ACOH    H410245   0.712   3.838   7.153
  169ACOH    O210246   0.699   3.926   7.106
  169ACOH    C210247   0.748   3.913   6.982
  169ACOH    O110248   0.792   3.812   6.930
  169ACOH    C110249   0.736   4.042   6.910
  169ACOH    H110250   0.765   4.032   6.805
  169ACOH    H210251   0.800   4.117   6.957
  169ACOH    H310252   0.633   4.077   6.914
  170ACOH    H410253   1.267   5.308   5.608
  170ACOH    O210254   1.301   5.357   5.688
  170ACOH    C210255   1.274   5.277   5.793
  170ACOH    O110256   1.173   5.211   5.804
  170ACOH    C110257   1.355   5.316   5.911
  170ACOH    H110258   1.447   5.365   5.881
  170ACOH    H210259   1.379   5.228   5.970
  170ACOH    H310260   1.298   5.385   5.973
  171ACOH    H410261   1.320   4.816   7.555
  171ACOH    O210262   1.359   4.900   7.593
  171ACOH    C210263   1.446   4.949   7.502
  171ACOH    O110264   1.449   4.922   7.384
  171ACOH    C110265   1.523   5.062   7.558
  171ACOH    H110266   1.628   5.049   7.535
  171ACOH    H210267   1.513   5.066   7.666
  171ACOH    H310268   1.489   5.156   7.515
  172ACOH    H410269   1.599   4.692   9.093
  172ACOH    O210270   1.609   4.644   9.180
  172ACOH    C210271   1.501   4.564   9.190
  172ACOH    O110272   1.402   4.568   9.120
  172ACOH    C110273   1.512   4.476   9.308
  172ACOH    H110274   1.503   4.535   9.398
  172ACOH    H210275   1.608   4.425   9.308
  172ACOH    H310276   1.434   4.401   9.307
  173ACOH    H410277   0.768   3.848   9.002
  173ACOH    O210278   0.741   3.934   8.955
  173ACOH    C210279   0.748   3.908   8.823
  173ACOH    O110280   0.772   3.801   8.770
  173ACOH    C110281   0.716   4.031   8.746
  173ACOH    H110282   0.722   4.013   8.639
  173ACOH    H210283   0.786   4.110   8.773
  173ACOH    H310284   0.615   4.064   8.770
  174ACOH    H410285   1.265   5.322   7.502
  174ACOH    O210286   1.327   5.352   7.575
  174ACOH    C210287   1.276   5.301   7.689
  174ACOH    O110288   1.157   5.284   7.711
  174ACOH    C110289   1.374   5.309   7.800
  174ACOH    H110290   1.475   5.321   7.761
  174ACOH    H210291   1.370   5.218   7.859
  174ACOH    H310292   1.351   5.394   7.864
  175ACOH    H410293   1.330   4.821   9.423
  175ACOH    O210294   1.377   4.901   9.462
  175ACOH    C210295   1.451   4.955   9.364
  175ACOH    O110296   1.445   4.930   9.245
  175ACOH    C110297   1.537   5.065   9.415
  175ACOH    H110298   1.640   5.045   9.388
  175ACOH    H210299   1.530   5.073   9.523
  175ACOH    H310300   1.507   5.159   9.370
  176ACOH    H410301   1.266   5.308   9.339
  176ACOH    O210302   1.331   5.340   9.408
  176ACOH    C210303   1.287   5.292   9.526
  176ACOH    O110304   1.173   5.255   9.551
  176ACOH    C110305   1.386   5.313   9.634
  176ACOH    H110306   1.483   5.337   9.593
  176ACOH    H210307   1.394   5.223   9.695
  176ACOH    H310308   1.354   5.395   9.698
  177ACOH    H410309   1.315   6.632   0.239
  177ACOH    O210310   1.381   6.695   0.279
  177ACOH    C210311   1.412   6.785   0.183
  177ACOH    O110312   1.348   6.807   0.082
  177ACOH    C110313   1.523   6.872   0.228
  177ACOH    H110314   1.613   6.812   0.235
  177ACOH    H210315   1.501   6.912   0.326
  177ACOH    H310316   1.538   6.954   0.158
  178ACOH    H410317   1.643   6.556   1.710
  178ACOH    O210318   1.632   6.507   1.796
  178ACOH    C210319   1.512   6.445   1.788
  178ACOH    O110320   1.431   6.460   1.698
  178ACOH    C110321   1.486   6.362   1.908
  178ACOH    H110322   1.480   6.425   1.996
  178ACOH    H210323   1.567   6.291   1.921
  178ACOH    H310324   1.393   6.307   1.897
  179ACOH    H410325   0.785   5.699   1.641
  179ACOH    O210326   0.767   5.786   1.594
  179ACOH    C210327   0.755   5.757   1.463
  179ACOH    O110328   0.768   5.647   1.411
  179ACOH    C110329   0.725   5.879   1.385
  179ACOH    H110330   0.716   5.857   1.279
  179ACOH    H210331   0.804   5.952   1.399
  179ACOH    H310332   0.631   5.922   1.420
  180ACOH    H410333   1.238   7.123   0.103
  180ACOH    O210334   1.296   7.166   0.172
  180ACOH    C210335   1.235   7.140   0.289
  180ACOH    O110336   1.115   7.132   0.305
  180ACOH    C110337   1.328   7.158   0.403
  180ACOH    H110338   1.431   7.164   0.369
  180ACOH    H210339   1.319   7.073   0.471
  180ACOH    H310340   1.303   7.248   0.458
  181ACOH    H410341   1.620   6.546   3.550
  181ACOH    O210342   1.630   6.503   3.639
  181ACOH    C210343   1.520   6.427   3.656
  181ACOH    O110344   1.425   6.418   3.580
  181ACOH    C110345   1.527   6.352   3.783
  181ACOH    H110346   1.527   6.421   3.866
  181ACOH    H210347   1.619   6.293   3.787
  181ACOH    H310348   1.442   6.285   3.794
  182ACOH    H410349   0.667   5.681   3.506
  182ACOH    O210350   0.640   5.763   3.456
  182ACOH    C210351   0.686   5.750   3.331
  182ACOH    O110352   0.733   5.649   3.281
  182ACOH    C110353   0.662   5.874   3.254
  182ACOH    H110354   0.693   5.862   3.150
  182ACOH    H210355   0.718   5.956   3.299
  182ACOH    H310356   0.556   5.898   3.256
  183ACOH    H410357   1.315   6.676   3.856
  183ACOH    O210358   1.353   6.761   3.894
  183ACOH    C210359   1.452   6.801   3.813
  183ACOH    O110360   1.468   6.768   3.696
  183ACOH    C110361   1.528   6.914   3.872
  183ACOH    H110362   1.635   6.896   3.861
  183ACOH    H210363   1.507   6.922   3.979
  183ACOH    H310364   1.502   7.007   3.823
  184ACOH    H410365   0.770   5.686   5.322
  184ACOH    O210366   0.742   5.771   5.277
  184ACOH    C210367   0.738   5.746   5.145
  184ACOH    O110368   0.770   5.642   5.091
  184ACOH    C110369   0.694   5.866   5.071
  184ACOH    H110370   0.697   5.848   4.964
  184ACOH    H210371   0.758   5.950   5.095
  184ACOH    H310372   0.591   5.890   5.099
  185ACOH    H410373   1.259   7.150   3.816
  185ACOH    O210374   1.321   7.180   3.889
  185ACOH    C210375   1.264   7.140   4.005
  185ACOH    O110376   1.144   7.123   4.022
  185ACOH    C110377   1.358   7.154   4.118
  185ACOH    H110378   1.461   7.163   4.083
  185ACOH    H210379   1.351   7.066   4.182
  185ACOH    H310380   1.333   7.242   4.176
  186ACOH    H410381   0.756   5.692   7.164
  186ACOH    O210382   0.732   5.776   7.115
  186ACOH    C210383   0.736   5.746   6.984
  186ACOH    O110384   0.767   5.638   6.935
  186ACOH    C110385   0.699   5.863   6.902
  186ACOH    H110386   0.706   5.840   6.796
  186ACOH    H210387   0.765   5.946   6.925
  186ACOH    H310388   0.596   5.892   6.925
  187ACOH    H410389   1.578   6.538   9.073
  187ACOH    O210390   1.596   6.490   9.160
  187ACOH    C210391   1.491   6.408   9.179
  187ACOH    O110392   1.387   6.408   9.116
  187ACOH    C110393   1.513   6.319   9.295
  187ACOH    H110394   1.510   6.378   9.387
  187ACOH    H210395   1.610   6.271   9.287
  187ACOH    H310396   1.436   6.242   9.300
  188ACOH    H410397   0.772   5.693   8.997
  188ACOH    O210398   0.746   5.775   8.946
  188ACOH    C210399   0.743   5.741   8.816
  188ACOH    O110400   0.770   5.631   8.769
  188ACOH    C110401   0.705   5.857   8.733
  188ACOH    H110402   0.710   5.833   8.627
  188ACOH    H210403   0.772   5.941   8.753
  188ACOH    H310404   0.604   5.887   8.757
  189ACOH    H410405   1.282   7.213   7.463
  189ACOH    O210406   1.336   7.212   7.543
  189ACOH    C210407   1.260   7.162   7.643
  189ACOH    O110408   1.140   7.140   7.636
  189ACOH    C110409   1.336   7.149   7.769
  189ACOH    H110410   1.442   7.168   7.754
  189ACOH    H210411   1.324   7.049   7.810
  189ACOH    H310412   1.299   7.220   7.843
  190ACOH    H410413   1.331   6.661   9.421
  190ACOH    O210414   1.380   6.740   9.458
  190ACOH    C210415   1.452   6.792   9.357
  190ACOH    O110416   1.444   6.765   9.239
  190ACOH    C110417   1.540   6.901   9.405
  190ACOH    H110418   1.643   6.877   9.380
  190ACOH    H210419   1.533   6.913   9.513
  190ACOH    H310420   1.513   6.995   9.357
  191ACOH    H410421   1.269   7.146   9.350
  191ACOH    O210422   1.336   7.162   9.421
  191ACOH    C210423   1.279   7.126   9.538
  191ACOH    O110424   1.161   7.106   9.557
  191ACOH    C110425   1.376   7.131   9.650
  191ACOH    H110426   1.477   7.147   9.614
  191ACOH    H210427   1.373   7.037   9.705
  191ACOH    H310428   1.349   7.212   9.717
  192ACOH    H410429   1.295   8.494   0.238
  192ACOH    O210430   1.362   8.555   0.279
  192ACOH    C210431   1.394   8.647   0.186
  192ACOH    O110432   1.336   8.668   0.081
  192ACOH    C110433   1.503   8.734   0.236
  192ACOH    H110434   1.592   8.674   0.248
  192ACOH    H210435   1.476   8.774   0.334
  192ACOH    H310436   1.522   8.816   0.168
  193ACOH    H410437   1.599   8.375   1.693
  193ACOH    O210438   1.616   8.322   1.776
  193ACOH    C210439   1.509   8.241   1.790
  193ACOH    O110440   1.399   8.256   1.740
  193ACOH    C110441   1.534   8.139   1.895
  193ACOH    H110442   1.568   8.187   1.986
  193ACOH    H210443   1.610   8.069   1.861
  193ACOH    H310444   1.443   8.083   1.918
  194ACOH    H410445   0.788   7.536   1.629
  194ACOH    O210446   0.777   7.626   1.585
  194ACOH    C210447   0.724   7.603   1.463
  194ACOH    O110448   0.682   7.497   1.421
  194ACOH    C110449   0.712   7.730   1.387
  194ACOH    H110450   0.667   7.712   1.290
  194ACOH    H210451   0.810   7.774   1.374
  194ACOH    H310452   0.649   7.799   1.443
  195ACOH    H410453   1.270   9.007   0.112
  195ACOH    O210454   1.316   9.051   0.189
  195ACOH    C210455   1.267   8.992   0.300
  195ACOH    O110456   1.174   8.912   0.306
  195ACOH    C110457   1.337   9.039   0.422
  195ACOH    H110458   1.423   9.101   0.396
  195ACOH    H210459   1.371   8.954   0.480
  195ACOH    H310460   1.269   9.098   0.482
  196ACOH    H410461   1.315   8.508   2.039
  196ACOH    O210462   1.358   8.589   2.079
  196ACOH    C210463   1.440   8.639   1.984
  196ACOH    O110464   1.429   8.624   1.864
  196ACOH    C110465   1.533   8.740   2.041
  196ACOH    H110466   1.634   8.717   2.008
  196ACOH    H210467   1.530   8.738   2.149
  196ACOH    H310468   1.506   8.839   2.005
  197ACOH    H410469   1.604   8.397   3.573
  197ACOH    O210470   1.618   8.345   3.657
  197ACOH    C210471   1.520   8.253   3.662
  197ACOH    O110472   1.431   8.238   3.580
  197ACOH    C110473   1.533   8.169   3.783
  197ACOH    H110474   1.523   8.231   3.872
  197ACOH    H210475   1.629   8.120   3.784
  197ACOH    H310476   1.455   8.093   3.785
  198ACOH    H410477   0.743   7.550   3.520
  198ACOH    O210478   0.722   7.635   3.472
  198ACOH    C210479   0.611   7.611   3.400
  198ACOH    O110480   0.553   7.504   3.388
  198ACOH    C110481   0.573   7.731   3.322
  198ACOH    H110482   0.488   7.710   3.258
  198ACOH    H210483   0.656   7.764   3.261
  198ACOH    H310484   0.545   7.811   3.391
  199ACOH    H410485   1.270   9.014   1.954
  199ACOH    O210486   1.330   9.043   2.028
  199ACOH    C210487   1.300   8.964   2.133
  199ACOH    O110488   1.206   8.888   2.142
  199ACOH    C110489   1.389   8.992   2.249
  199ACOH    H110490   1.475   9.050   2.219
  199ACOH    H210491   1.422   8.899   2.294
  199ACOH    H310492   1.334   9.048   2.325
  200ACOH    H410493   1.323   8.508   3.860
  200ACOH    O210494   1.361   8.592   3.897
  200ACOH    C210495   1.452   8.639   3.809
  200ACOH    O110496   1.464   8.607   3.692
  200ACOH    C110497   1.531   8.750   3.867
  200ACOH    H110498   1.637   8.729   3.857
  200ACOH    H210499   1.509   8.763   3.973
  200ACOH    H310500   1.508   8.843   3.815
  201ACOH    H410501   1.598   8.400   5.414
  201ACOH    O210502   1.616   8.348   5.497
  201ACOH    C210503   1.528   8.247   5.499
  201ACOH    O110504   1.441   8.225   5.416
  201ACOH    C110505   1.547   8.163   5.619
  201ACOH    H110506   1.532   8.224   5.708
  201ACOH    H210507   1.648   8.123   5.620
  201ACOH    H310508   1.477   8.081   5.621
  202ACOH    H410509   1.293   8.964   3.829
  202ACOH    O210510   1.337   9.010   3.906
  202ACOH    C210511   1.259   8.983   4.012
  202ACOH    O110512   1.137   8.980   4.009
  202ACOH    C110513   1.333   9.003   4.139
  202ACOH    H110514   1.440   9.004   4.121
  202ACOH    H210515   1.310   8.922   4.207
  202ACOH    H310516   1.304   9.097   4.185
  203ACOH    H410517   1.331   8.500   5.697
  203ACOH    O210518   1.370   8.583   5.735
  203ACOH    C210519   1.455   8.634   5.644
  203ACOH    O110520   1.457   8.608   5.525
  203ACOH    C110521   1.537   8.744   5.701
  203ACOH    H110522   1.642   8.723   5.685
  203ACOH    H210523   1.520   8.754   5.807
  203ACOH    H310524   1.511   8.837   5.652
  204ACOH    H410525   1.545   8.405   7.246
  204ACOH    O210526   1.545   8.360   7.336
  204ACOH    C210527   1.466   8.252   7.324
  204ACOH    O110528   1.384   8.232   7.236
  204ACOH    C110529   1.481   8.164   7.441
  204ACOH    H110530   1.457   8.219   7.532
  204ACOH    H210531   1.583   8.128   7.448
  204ACOH    H310532   1.415   8.078   7.434
  205ACOH    H410533   0.755   7.520   7.181
  205ACOH    O210534   0.726   7.603   7.132
  205ACOH    C210535   0.740   7.577   7.000
  205ACOH    O110536   0.781   7.473   6.951
  205ACOH    C110537   0.695   7.693   6.920
  205ACOH    H110538   0.704   7.671   6.813
  205ACOH    H210539   0.756   7.780   6.943
  205ACOH    H310540   0.591   7.716   6.942
  206ACOH    H410541   1.304   8.957   5.668
  206ACOH    O210542   1.348   8.998   5.748
  206ACOH    C210543   1.258   8.991   5.847
  206ACOH    O110544   1.137   9.004   5.833
  206ACOH    C110545   1.323   9.008   5.979
  206ACOH    H110546   1.431   8.995   5.970
  206ACOH    H210547   1.286   8.931   6.047
  206ACOH    H310548   1.301   9.106   6.020
  207ACOH    H410549   1.300   8.489   7.570
  207ACOH    O210550   1.346   8.573   7.599
  207ACOH    C210551   1.386   8.639   7.489
  207ACOH    O110552   1.364   8.611   7.373
  207ACOH    C110553   1.463   8.760   7.526
  207ACOH    H110554   1.567   8.747   7.499
  207ACOH    H210555   1.455   8.779   7.633
  207ACOH    H310556   1.424   8.846   7.472
  208ACOH    H410557   1.571   8.411   9.094
  208ACOH    O210558   1.584   8.355   9.175
  208ACOH    C210559   1.493   8.256   9.167
  208ACOH    O110560   1.411   8.239   9.078
  208ACOH    C110561   1.504   8.167   9.284
  208ACOH    H110562   1.479   8.222   9.375
  208ACOH    H210563   1.605   8.129   9.293
  208ACOH    H310564   1.436   8.082   9.275
  209ACOH    H410565   0.754   7.537   8.995
  209ACOH    O210566   0.733   7.623   8.947
  209ACOH    C210567   0.741   7.598   8.815
  209ACOH    O110568   0.773   7.492   8.764
  209ACOH    C110569   0.711   7.720   8.738
  209ACOH    H110570   0.726   7.703   8.632
  209ACOH    H210571   0.775   7.801   8.771
  209ACOH    H310572   0.607   7.748   8.755
  210ACOH    H410573   1.250   9.020   7.503
  210ACOH    O210574   1.310   9.047   7.578
  210ACOH    C210575   1.258   8.992   7.689
  210ACOH    O110576   1.142   8.958   7.704
  210ACOH    C110577   1.351   9.005   7.804
  210ACOH    H110578   1.451   9.032   7.771
  210ACOH    H210579   1.356   8.910   7.858
  210ACOH    H310580   1.315   9.081   7.873
  211ACOH    H410581   1.268   8.491   9.416
  211ACOH    O210582   1.325   8.562   9.454
  211ACOH    C210583   1.400   8.610   9.352
  211ACOH    O110584   1.387   8.585   9.234
  211ACOH    C110585   1.499   8.710   9.399
  211ACOH    H110586   1.599   8.673   9.382
  211ACOH    H210587   1.487   8.730   9.505
  211ACOH    H310588   1.486   8.802   9.343
  212ACOH    H410589   1.312   8.973   9.311
  212ACOH    O210590   1.363   9.002   9.393
  212ACOH    C210591   1.289   8.965   9.498
  212ACOH    O110592   1.171   8.935   9.496
  212ACOH    C110593   1.362   8.981   9.626
  212ACOH    H110594   1.467   9.003   9.609
  212ACOH    H210595   1.355   8.890   9.685
  212ACOH    H310596   1.319   9.063   9.684
  213ACOH    H410597   0.643   9.423   5.346
  213ACOH    O210598   0.613   9.508   5.302
  213ACOH    C210599   0.608   9.481   5.171
  213ACOH    O110600   0.607   9.372   5.118
  213ACOH    C110601   0.592   9.607   5.094
  213ACOH    H110602   0.584   9.586   4.988
  213ACOH    H210603   0.678   9.671   5.111
  213ACOH    H310604   0.502   9.659   5.127
  214ACOH    H410605   0.753   9.411   7.173
  214ACOH    O210606   0.735   9.496   7.124
  214ACOH    C210607   0.733   9.464   6.993
  214ACOH    O110608   0.759   9.355   6.945
  214ACOH    C110609   0.701   9.582   6.911
  214ACOH    H110610   0.705   9.558   6.805
  214ACOH    H210611   0.772   9.662   6.931
  214ACOH    H310612   0.601   9.617   6.935
  215ACOH    H410613   0.699   9.402   9.021
  215ACOH    O210614   0.686   9.489   8.973
  215ACOH    C210615   0.705   9.462   8.842
  215ACOH    O110616   0.726   9.352   8.793
  215ACOH    C110617   0.695   9.586   8.763
  215ACOH    H110618   0.703   9.564   8.656
  215ACOH    H210619   0.776   9.653   8.790
  215ACOH    H310620   0.600   9.634   8.783
  216ACOH    H410621   3.145   1.148   0.216
  216ACOH    O210622   3.204   1.217   0.256
  216ACOH    C210623   3.280   1.266   0.157
  216ACOH    O110624   3.251   1.268   0.039
  216ACOH    C110625   3.395   1.342   0.211
  216ACOH    H110626   3.487   1.300   0.171
  216ACOH    H210627   3.399   1.337   0.319
  216ACOH    H310628   3.389   1.446   0.181
  217ACOH    H410629   3.429   1.014   1.670
  217ACOH    O210630   3.441   0.971   1.759
  217ACOH    C210631   3.331   0.896   1.779
  217ACOH    O110632   3.234   0.885   1.705
  217ACOH    C110633   3.342   0.824   1.908
  217ACOH    H110634   3.335   0.895   1.989
  217ACOH    H210635   3.437   0.772   1.913
  217ACOH    H310636   3.262   0.751   1.918
  218ACOH    H410637   2.551   0.229   1.628
  218ACOH    O210638   2.479   0.289   1.591
  218ACOH    C210639   2.498   0.299   1.459
  218ACOH    O110640   2.586   0.244   1.394
  218ACOH    C110641   2.394   0.386   1.399
  218ACOH    H110642   2.410   0.397   1.292
  218ACOH    H210643   2.398   0.484   1.445
  218ACOH    H310644   2.296   0.343   1.416
  219ACOH    H410645   3.087   1.516   0.100
  219ACOH    O210646   3.150   1.546   0.170
  219ACOH    C210647   3.077   1.566   0.281
  219ACOH    O110648   2.959   1.594   0.283
  219ACOH    C110649   3.162   1.571   0.403
  219ACOH    H110650   3.266   1.553   0.378
  219ACOH    H210651   3.129   1.494   0.473
  219ACOH    H310652   3.153   1.668   0.450
  220ACOH    H410653   3.143   1.122   1.991
  220ACOH    O210654   3.190   1.198   2.036
  220ACOH    C210655   3.271   1.256   1.944
  220ACOH    O110656   3.277   1.231   1.825
  220ACOH    C110657   3.349   1.367   2.004
  220ACOH    H110658   3.455   1.350   1.986
  220ACOH    H210659   3.333   1.373   2.112
  220ACOH    H310660   3.320   1.461   1.959
  221ACOH    H410661   3.462   1.073   3.583
  221ACOH    O210662   3.463   1.021   3.668
  221ACOH    C210663   3.370   0.924   3.652
  221ACOH    O110664   3.305   0.899   3.552
  221ACOH    C110665   3.360   0.841   3.774
  221ACOH    H110666   3.329   0.904   3.858
  221ACOH    H210667   3.456   0.796   3.797
  221ACOH    H310668   3.285   0.763   3.761
  222ACOH    H410669   2.572   0.188   3.482
  222ACOH    O210670   2.551   0.278   3.445
  222ACOH    C210671   2.568   0.268   3.312
  222ACOH    O110672   2.582   0.165   3.247
  222ACOH    C110673   2.562   0.401   3.247
  222ACOH    H110674   2.486   0.401   3.169
  222ACOH    H210675   2.658   0.424   3.203
  222ACOH    H310676   2.538   0.478   3.320
  223ACOH    H410677   3.084   1.621   1.969
  223ACOH    O210678   3.151   1.638   2.042
  223ACOH    C210679   3.095   1.598   2.158
  223ACOH    O110680   2.976   1.591   2.179
  223ACOH    C110681   3.194   1.600   2.268
  223ACOH    H110682   3.296   1.601   2.229
  223ACOH    H210683   3.182   1.512   2.330
  223ACOH    H310684   3.180   1.689   2.329
  224ACOH    H410685   3.144   1.117   3.847
  224ACOH    O210686   3.198   1.189   3.889
  224ACOH    C210687   3.263   1.254   3.791
  224ACOH    O110688   3.251   1.238   3.671
  224ACOH    C110689   3.356   1.356   3.846
  224ACOH    H110690   3.457   1.333   3.813
  224ACOH    H210691   3.353   1.356   3.954
  224ACOH    H310692   3.329   1.454   3.809
  225ACOH    H410693   3.398   0.972   5.349
  225ACOH    O210694   3.418   0.927   5.437
  225ACOH    C210695   3.313   0.848   5.465
  225ACOH    O110696   3.217   0.824   5.393
  225ACOH    C110697   3.335   0.782   5.596
  225ACOH    H110698   3.337   0.857   5.674
  225ACOH    H210699   3.430   0.729   5.595
  225ACOH    H310700   3.256   0.711   5.618
  226ACOH    H410701   2.587   0.254   5.337
  226ACOH    O210702   2.562   0.339   5.291
  226ACOH    C210703   2.552   0.309   5.160
  226ACOH    O110704   2.557   0.197   5.112
  226ACOH    C110705   2.521   0.429   5.080
  226ACOH    H110706   2.499   0.402   4.977
  226ACOH    H210707   2.607   0.495   5.081
  226ACOH    H310708   2.436   0.482   5.123
  227ACOH    H410709   3.102   1.591   3.832
  227ACOH    O210710   3.156   1.603   3.915
  227ACOH    C210711   3.069   1.609   4.018
  227ACOH    O110712   2.948   1.618   4.010
  227ACOH    C110713   3.139   1.622   4.148
  227ACOH    H110714   3.246   1.605   4.136
  227ACOH    H210715   3.100   1.548   4.217
  227ACOH    H310716   3.124   1.721   4.188
  228ACOH    H410717   3.151   1.124   5.709
  228ACOH    O210718   3.192   1.204   5.751
  228ACOH    C210719   3.278   1.258   5.662
  228ACOH    O110720   3.301   1.218   5.550
  228ACOH    C110721   3.351   1.374   5.720
  228ACOH    H110722   3.457   1.353   5.720
  228ACOH    H210723   3.319   1.393   5.822
  228ACOH    H310724   3.332   1.463   5.660
  229ACOH    H410725   3.442   1.001   7.245
  229ACOH    O210726   3.453   0.956   7.333
  229ACOH    C210727   3.343   0.880   7.350
  229ACOH    O110728   3.248   0.870   7.275
  229ACOH    C110729   3.351   0.807   7.478
  229ACOH    H110730   3.343   0.877   7.560
  229ACOH    H210731   3.447   0.756   7.486
  229ACOH    H310732   3.271   0.734   7.486
  230ACOH    H410733   2.605   0.219   7.141
  230ACOH    O210734   2.565   0.306   7.112
  230ACOH    C210735   2.555   0.302   6.978
  230ACOH    O110736   2.592   0.211   6.905
  230ACOH    C110737   2.494   0.427   6.927
  230ACOH    H110738   2.487   0.424   6.818
  230ACOH    H210739   2.555   0.511   6.956
  230ACOH    H310740   2.394   0.439   6.968
  231ACOH    H410741   3.092   1.620   5.653
  231ACOH    O210742   3.157   1.644   5.725
  231ACOH    C210743   3.102   1.604   5.842
  231ACOH    O110744   2.984   1.579   5.860
  231ACOH    C110745   3.196   1.622   5.955
  231ACOH    H110746   3.298   1.635   5.919
  231ACOH    H210747   3.192   1.535   6.020
  231ACOH    H310748   3.167   1.710   6.012
  232ACOH    H410749   3.171   1.134   7.565
  232ACOH    O210750   3.217   1.216   7.600
  232ACOH    C210751   3.305   1.257   7.507
  232ACOH    O110752   3.306   1.228   7.389
  232ACOH    C110753   3.391   1.366   7.560
  232ACOH    H110754   3.494   1.349   7.531
  232ACOH    H210755   3.387   1.368   7.669
  232ACOH    H310756   3.357   1.462   7.521
  233ACOH    H410757   3.443   0.994   9.075
  233ACOH    O210758   3.458   0.948   9.163
  233ACOH    C210759   3.349   0.870   9.183
  233ACOH    O110760   3.253   0.859   9.109
  233ACOH    C110761   3.361   0.796   9.310
  233ACOH    H110762   3.348   0.864   9.393
  233ACOH    H210763   3.459   0.749   9.318
  233ACOH    H310764   3.285   0.718   9.317
  234ACOH    H410765   2.650   0.284   9.019
  234ACOH    O210766   2.584   0.353   8.991
  234ACOH    C210767   2.585   0.353   8.856
  234ACOH    O110768   2.655   0.284   8.784
  234ACOH    C110769   2.480   0.444   8.803
  234ACOH    H110770   2.473   0.435   8.695
  234ACOH    H210771   2.507   0.546   8.827
  234ACOH    H310772   2.384   0.420   8.848
  235ACOH    H410773   3.085   1.610   7.486
  235ACOH    O210774   3.154   1.634   7.555
  235ACOH    C210775   3.108   1.584   7.672
  235ACOH    O110776   2.991   1.571   7.701
  235ACOH    C110777   3.214   1.595   7.775
  235ACOH    H110778   3.313   1.589   7.731
  235ACOH    H210779   3.203   1.515   7.848
  235ACOH    H310780   3.204   1.690   7.825
  236ACOH    H410781   3.162   1.132   9.399
  236ACOH    O210782   3.202   1.215   9.438
  236ACOH    C210783   3.296   1.259   9.351
  236ACOH    O110784   3.306   1.229   9.234
  236ACOH    C110785   3.375   1.369   9.410
  236ACOH    H110786   3.481   1.350   9.394
  236ACOH    H210787   3.359   1.376   9.517
  236ACOH    H310788   3.349   1.464   9.364
  237ACOH    H410789   3.102   1.606   9.353
  237ACOH    O210790   3.167   1.636   9.423
  237ACOH    C210791   3.120   1.589   9.540
  237ACOH    O110792   3.004   1.561   9.564
  237ACOH    C110793   3.219   1.607   9.649
  237ACOH    H110794   3.319   1.624   9.609
  237ACOH    H210795   3.222   1.518   9.711
  237ACOH    H310796   3.191   1.692   9.711
  238ACOH    H410797   3.168   2.937   0.230
  238ACOH    O210798   3.213   3.020   0.263
  238ACOH    C210799   3.218   3.106   0.160
  238ACOH    O110800   3.160   3.094   0.054
  238ACOH    C110801   3.299   3.226   0.193
  238ACOH    H110802   3.379   3.236   0.121
  238ACOH    H210803   3.343   3.217   0.293
  238ACOH    H310804   3.236   3.314   0.190
  239ACOH    H410805   3.403   2.884   1.732
  239ACOH    O210806   3.403   2.835   1.820
  239ACOH    C210807   3.322   2.729   1.805
  239ACOH    O110808   3.246   2.708   1.712
  239ACOH    C110809   3.328   2.644   1.926
  239ACOH    H110810   3.307   2.703   2.014
  239ACOH    H210811   3.426   2.600   1.936
  239ACOH    H310812   3.254   2.564   1.921
  240ACOH    H410813   2.576   2.041   1.659
  240ACOH    O210814   2.551   2.127   1.613
  240ACOH    C210815   2.555   2.102   1.481
  240ACOH    O110816   2.575   1.994   1.428
  240ACOH    C110817   2.526   2.225   1.404
  240ACOH    H110818   2.531   2.205   1.297
  240ACOH    H210819   2.598   2.302   1.429
  240ACOH    H310820   2.427   2.260   1.429
  241ACOH    H410821   2.998   3.556   0.187
  241ACOH    O210822   3.082   3.547   0.241
  241ACOH    C210823   3.052   3.465   0.343
  241ACOH    O110824   2.950   3.400   0.358
  241ACOH    C110825   3.165   3.454   0.439
  241ACOH    H110826   3.253   3.507   0.403
  241ACOH    H210827   3.191   3.349   0.454
  241ACOH    H310828   3.136   3.496   0.534
  242ACOH    H410829   3.137   2.977   2.019
  242ACOH    O210830   3.178   3.058   2.060
  242ACOH    C210831   3.260   3.114   1.969
  242ACOH    O110832   3.252   3.102   1.848
  242ACOH    C110833   3.345   3.219   2.030
  242ACOH    H110834   3.449   3.203   2.001
  242ACOH    H210835   3.340   3.215   2.138
  242ACOH    H310836   3.314   3.317   1.996
  243ACOH    H410837   3.438   2.852   3.546
  243ACOH    O210838   3.450   2.805   3.634
  243ACOH    C210839   3.342   2.726   3.647
  243ACOH    O110840   3.244   2.724   3.574
  243ACOH    C110841   3.352   2.643   3.769
  243ACOH    H110842   3.346   2.706   3.856
  243ACOH    H210843   3.447   2.590   3.770
  243ACOH    H310844   3.272   2.570   3.772
  244ACOH    H410845   3.097   3.484   1.985
  244ACOH    O210846   3.158   3.508   2.060
  244ACOH    C210847   3.105   3.455   2.172
  244ACOH    O110848   2.986   3.437   2.190
  244ACOH    C110849   3.201   3.459   2.284
  244ACOH    H110850   3.303   3.467   2.248
  244ACOH    H210851   3.192   3.369   2.344
  244ACOH    H310852   3.180   3.545   2.347
  245ACOH    H410853   3.151   2.963   3.860
  245ACOH    O210854   3.196   3.044   3.896
  245ACOH    C210855   3.278   3.091   3.801
  245ACOH    O110856   3.276   3.063   3.682
  245ACOH    C110857   3.364   3.201   3.852
  245ACOH    H110858   3.468   3.180   3.829
  245ACOH    H210859   3.354   3.211   3.960
  245ACOH    H310860   3.336   3.295   3.805
  246ACOH    H410861   3.442   2.853   5.396
  246ACOH    O210862   3.457   2.805   5.482
  246ACOH    C210863   3.350   2.724   5.496
  246ACOH    O110864   3.250   2.723   5.427
  246ACOH    C110865   3.366   2.636   5.614
  246ACOH    H110866   3.363   2.696   5.704
  246ACOH    H210867   3.461   2.584   5.609
  246ACOH    H310868   3.286   2.562   5.618
  247ACOH    H410869   2.605   2.043   5.333
  247ACOH    O210870   2.582   2.127   5.284
  247ACOH    C210871   2.567   2.093   5.154
  247ACOH    O110872   2.585   1.982   5.105
  247ACOH    C110873   2.528   2.211   5.074
  247ACOH    H110874   2.522   2.186   4.968
  247ACOH    H210875   2.601   2.290   5.088
  247ACOH    H310876   2.431   2.247   5.107
  248ACOH    H410877   3.104   3.450   3.806
  248ACOH    O210878   3.171   3.467   3.877
  248ACOH    C210879   3.115   3.435   3.995
  248ACOH    O110880   2.995   3.427   4.016
  248ACOH    C110881   3.214   3.440   4.105
  248ACOH    H110882   3.315   3.445   4.066
  248ACOH    H210883   3.204   3.351   4.166
  248ACOH    H310884   3.195   3.527   4.167
  249ACOH    H410885   3.167   2.973   5.703
  249ACOH    O210886   3.206   3.057   5.741
  249ACOH    C210887   3.295   3.105   5.653
  249ACOH    O110888   3.300   3.082   5.533
  249ACOH    C110889   3.374   3.216   5.712
  249ACOH    H110890   3.480   3.201   5.689
  249ACOH    H210891   3.364   3.217   5.820
  249ACOH    H310892   3.341   3.311   5.672
  250ACOH    H410893   3.444   2.862   7.248
  250ACOH    O210894   3.453   2.815   7.335
  250ACOH    C210895   3.345   2.734   7.343
  250ACOH    O110896   3.250   2.731   7.267
  250ACOH    C110897   3.351   2.650   7.465
  250ACOH    H110898   3.342   2.713   7.552
  250ACOH    H210899   3.445   2.597   7.469
  250ACOH    H310900   3.270   2.577   7.465
  251ACOH    H410901   3.106   3.477   5.655
  251ACOH    O210902   3.172   3.497   5.727
  251ACOH    C210903   3.117   3.458   5.843
  251ACOH    O110904   2.997   3.449   5.865
  251ACOH    C110905   3.216   3.458   5.953
  251ACOH    H110906   3.317   3.463   5.914
  251ACOH    H210907   3.205   3.366   6.011
  251ACOH    H310908   3.199   3.543   6.018
  252ACOH    H410909   3.172   2.998   7.574
  252ACOH    O210910   3.217   3.082   7.606
  252ACOH    C210911   3.295   3.126   7.506
  252ACOH    O110912   3.296   3.088   7.390
  252ACOH    C110913   3.374   3.244   7.548
  252ACOH    H110914   3.479   3.227   7.526
  252ACOH    H210915   3.365   3.261   7.655
  252ACOH    H310916   3.341   3.333   7.495
  253ACOH    H410917   3.437   2.864   9.086
  253ACOH    O210918   3.444   2.814   9.171
  253ACOH    C210919   3.338   2.730   9.173
  253ACOH    O110920   3.241   2.733   9.099
  253ACOH    C110921   3.348   2.637   9.287
  253ACOH    H110922   3.338   2.692   9.380
  253ACOH    H210923   3.444   2.587   9.286
  253ACOH    H310924   3.269   2.562   9.283
  254ACOH    H410925   2.586   2.002   9.005
  254ACOH    O210926   2.536   2.074   8.955
  254ACOH    C210927   2.564   2.052   8.825
  254ACOH    O110928   2.599   1.946   8.776
  254ACOH    C110929   2.526   2.170   8.744
  254ACOH    H110930   2.536   2.149   8.638
  254ACOH    H210931   2.592   2.254   8.768
  254ACOH    H310932   2.424   2.199   8.765
  255ACOH    H410933   3.101   3.466   7.506
  255ACOH    O210934   3.158   3.496   7.583
  255ACOH    C210935   3.105   3.444   7.695
  255ACOH    O110936   2.988   3.416   7.709
  255ACOH    C110937   3.195   3.466   7.811
  255ACOH    H110938   3.298   3.478   7.778
  255ACOH    H210939   3.189   3.382   7.879
  255ACOH    H310940   3.165   3.556   7.864
  256ACOH    H410941   3.176   2.970   9.412
  256ACOH    O210942   3.228   3.046   9.451
  256ACOH    C210943   3.297   3.103   9.350
  256ACOH    O110944   3.287   3.080   9.231
  256ACOH    C110945   3.386   3.211   9.400
  256ACOH    H110946   3.489   3.189   9.371
  256ACOH    H210947   3.382   3.218   9.509
  256ACOH    H310948   3.357   3.306   9.358
  257ACOH    H410949   3.103   3.457   9.343
  257ACOH    O210950   3.171   3.466   9.415
  257ACOH    C210951   3.111   3.436   9.532
  257ACOH    O110952   2.992   3.418   9.551
  257ACOH    C110953   3.208   3.438   9.645
  257ACOH    H110954   3.309   3.452   9.609
  257ACOH    H210955   3.202   3.344   9.699
  257ACOH    H310956   3.183   3.520   9.712
  258ACOH    H410957   3.143   4.807   0.240
  258ACOH    O210958   3.207   4.873   0.277
  258ACOH    C210959   3.258   4.943   0.174
  258ACOH    O110960   3.212   4.948   0.061
  258ACOH    C110961   3.373   5.027   0.215
  258ACOH    H110962   3.461   4.996   0.159
  258ACOH    H210963   3.393   5.015   0.322
  258ACOH    H310964   3.352   5.131   0.194
  259ACOH    H410965   3.430   4.695   1.687
  259ACOH    O210966   3.436   4.644   1.773
  259ACOH    C210967   3.327   4.564   1.775
  259ACOH    O110968   3.236   4.563   1.695
  259ACOH    C110969   3.331   4.476   1.894
  259ACOH    H110970   3.319   4.536   1.983
  259ACOH    H210971   3.426   4.424   1.898
  259ACOH    H310972   3.251   4.403   1.890
  260ACOH    H410973   2.622   3.915   1.665
  260ACOH    O210974   2.585   3.996   1.619
  260ACOH    C210975   2.579   3.966   1.488
  260ACOH    O110976   2.605   3.859   1.436
  260ACOH    C110977   2.535   4.085   1.412
  260ACOH    H110978   2.533   4.064   1.306
  260ACOH    H210979   2.602   4.168   1.431
  260ACOH    H310980   2.435   4.114   1.444
  261ACOH    H410981   3.050   5.200   0.108
  261ACOH    O210982   3.114   5.237   0.174
  261ACOH    C210983   3.044   5.260   0.287
  261ACOH    O110984   2.929   5.299   0.290
  261ACOH    C110985   3.137   5.282   0.399
  261ACOH    H110986   3.231   5.228   0.383
  261ACOH    H210987   3.093   5.246   0.492
  261ACOH    H310988   3.160   5.387   0.408
  262ACOH    H410989   3.138   4.790   1.978
  262ACOH    O210990   3.178   4.874   2.013
  262ACOH    C210991   3.254   4.928   1.916
  262ACOH    O110992   3.260   4.896   1.799
  262ACOH    C110993   3.324   5.049   1.965
  262ACOH    H110994   3.430   5.042   1.943
  262ACOH    H210995   3.312   5.057   2.073
  262ACOH    H310996   3.283   5.138   1.919
  263ACOH    H410997   3.429   4.723   3.536
  263ACOH    O210998   3.447   4.669   3.617
  263ACOH    C210999   3.341   4.586   3.630
  263ACOH    O111000   3.240   4.585   3.563
  263ACOH    C111001   3.360   4.495   3.746
  263ACOH    H111002   3.354   4.551   3.838
  263ACOH    H211003   3.457   4.446   3.739
  263ACOH    H311004   3.283   4.418   3.747
  264ACOH    H411005   2.566   3.826   3.466
  264ACOH    O211006   2.532   3.905   3.413
  264ACOH    C211007   2.565   3.882   3.285
  264ACOH    O111008   2.607   3.777   3.238
  264ACOH    C111009   2.532   4.000   3.202
  264ACOH    H111010   2.551   3.980   3.097
  264ACOH    H211011   2.591   4.085   3.233
  264ACOH    H311012   2.426   4.024   3.214
  265ACOH    H411013   3.150   4.819   3.863
  265ACOH    O211014   3.187   4.905   3.899
  265ACOH    C211015   3.275   4.951   3.808
  265ACOH    O111016   3.278   4.923   3.689
  265ACOH    C111017   3.355   5.063   3.862
  265ACOH    H111018   3.460   5.045   3.841
  265ACOH    H211019   3.343   5.071   3.970
  265ACOH    H311020   3.325   5.157   3.816
  266ACOH    H411021   3.483   4.660   5.381
  266ACOH    O211022   3.457   4.644   5.477
  266ACOH    C211023   3.341   4.577   5.471
  266ACOH    O111024   3.264   4.572   5.377
  266ACOH    C111025   3.306   4.523   5.604
  266ACOH    H111026   3.303   4.603   5.677
  266ACOH    H211027   3.382   4.451   5.635
  266ACOH    H311028   3.210   4.473   5.602
  267ACOH    H411029   2.553   3.850   5.328
  267ACOH    O211030   2.517   3.931   5.280
  267ACOH    C211031   2.537   3.908   5.149
  267ACOH    O111032   2.573   3.803   5.097
  267ACOH    C111033   2.499   4.027   5.070
  267ACOH    H111034   2.508   4.008   4.963
  267ACOH    H211035   2.565   4.110   5.096
  267ACOH    H311036   2.397   4.055   5.093
  268ACOH    H411037   3.086   5.305   3.818
  268ACOH    O211038   3.153   5.335   3.886
  268ACOH    C211039   3.101   5.307   4.007
  268ACOH    O111040   2.982   5.304   4.032
  268ACOH    C111041   3.203   5.317   4.113
  268ACOH    H111042   3.303   5.315   4.072
  268ACOH    H211043   3.193   5.233   4.182
  268ACOH    H311044   3.190   5.409   4.169
  269ACOH    H411045   3.159   4.903   5.740
  269ACOH    O211046   3.213   4.981   5.775
  269ACOH    C211047   3.318   4.992   5.692
  269ACOH    O111048   3.322   4.956   5.576
  269ACOH    C111049   3.420   5.084   5.748
  269ACOH    H111050   3.520   5.048   5.724
  269ACOH    H211051   3.411   5.090   5.856
  269ACOH    H311052   3.407   5.184   5.706
  270ACOH    H411053   3.440   4.710   7.271
  270ACOH    O211054   3.431   4.676   7.365
  270ACOH    C211055   3.357   4.564   7.357
  270ACOH    O111056   3.281   4.534   7.266
  270ACOH    C111057   3.361   4.490   7.485
  270ACOH    H111058   3.345   4.558   7.568
  270ACOH    H211059   3.458   4.442   7.495
  270ACOH    H311060   3.284   4.414   7.487
  271ACOH    H411061   2.571   3.863   7.177
  271ACOH    O211062   2.551   3.948   7.127
  271ACOH    C211063   2.561   3.918   6.996
  271ACOH    O111064   2.583   3.809   6.948
  271ACOH    C111065   2.537   4.040   6.915
  271ACOH    H111066   2.544   4.017   6.809
  271ACOH    H211067   2.610   4.116   6.940
  271ACOH    H311068   2.437   4.078   6.936
  272ACOH    H411069   3.112   5.289   5.657
  272ACOH    O211070   3.176   5.315   5.729
  272ACOH    C211071   3.121   5.273   5.845
  272ACOH    O111072   3.001   5.258   5.865
  272ACOH    C111073   3.215   5.290   5.958
  272ACOH    H111074   3.317   5.301   5.922
  272ACOH    H211075   3.210   5.202   6.022
  272ACOH    H311076   3.189   5.377   6.017
  273ACOH    H411077   3.112   4.831   7.491
  273ACOH    O211078   3.131   4.925   7.518
  273ACOH    C211079   3.223   4.974   7.433
  273ACOH    O111080   3.226   4.950   7.314
  273ACOH    C111081   3.288   5.095   7.488
  273ACOH    H111082   3.395   5.090   7.469
  273ACOH    H211083   3.272   5.102   7.595
  273ACOH    H311084   3.248   5.184   7.440
  274ACOH    H411085   3.433   4.706   9.076
  274ACOH    O211086   3.449   4.662   9.163
  274ACOH    C211087   3.345   4.577   9.179
  274ACOH    O111088   3.248   4.567   9.107
  274ACOH    C111089   3.361   4.496   9.303
  274ACOH    H111090   3.352   4.560   9.390
  274ACOH    H211091   3.459   4.449   9.303
  274ACOH    H311092   3.285   4.419   9.308
  275ACOH    H411093   2.598   3.898   9.011
  275ACOH    O211094   2.562   3.978   8.962
  275ACOH    C211095   2.559   3.945   8.832
  275ACOH    O111096   2.590   3.837   8.782
  275ACOH    C111097   2.509   4.059   8.751
  275ACOH    H111098   2.505   4.033   8.645
  275ACOH    H211099   2.574   4.145   8.765
  275ACOH    H311100   2.409   4.085   8.784
  276ACOH    H411101   3.068   5.335   7.498
  276ACOH    O211102   3.126   5.362   7.575
  276ACOH    C211103   3.073   5.307   7.685
  276ACOH    O111104   2.957   5.274   7.699
  276ACOH    C111105   3.164   5.324   7.802
  276ACOH    H111106   3.266   5.342   7.769
  276ACOH    H211107   3.162   5.234   7.863
  276ACOH    H311108   3.131   5.408   7.862
  277ACOH    H411109   3.160   4.824   9.403
  277ACOH    O211110   3.203   4.906   9.440
  277ACOH    C211111   3.288   4.953   9.347
  277ACOH    O111112   3.285   4.928   9.227
  277ACOH    C111113   3.374   5.061   9.401
  277ACOH    H111114   3.477   5.042   9.374
  277ACOH    H211115   3.367   5.065   9.510
  277ACOH    H311116   3.344   5.157   9.360
  278ACOH    H411117   3.103   5.302   9.339
  278ACOH    O211118   3.165   5.331   9.412
  278ACOH    C211119   3.118   5.276   9.526
  278ACOH    O111120   3.002   5.247   9.548
  278ACOH    C111121   3.216   5.290   9.637
  278ACOH    H111122   3.315   5.311   9.598
  278ACOH    H211123   3.219   5.198   9.694
  278ACOH    H311124   3.186   5.372   9.702
  279ACOH    H411125   3.155   6.636   0.233
  279ACOH    O211126   3.229   6.693   0.268
  279ACOH    C211127   3.239   6.799   0.186
  279ACOH    O111128   3.171   6.821   0.087
  279ACOH    C111129   3.347   6.889   0.233
  279ACOH    H111130   3.441   6.836   0.230
  279ACOH    H211131   3.327   6.920   0.335
  279ACOH    H311132   3.354   6.977   0.170
  280ACOH    H411133   3.430   6.556   1.690
  280ACOH    O211134   3.448   6.499   1.769
  280ACOH    C211135   3.341   6.418   1.780
  280ACOH    O111136   3.249   6.406   1.701
  280ACOH    C111137   3.353   6.335   1.903
  280ACOH    H111138   3.343   6.399   1.990
  280ACOH    H211139   3.450   6.286   1.905
  280ACOH    H311140   3.275   6.259   1.905
  281ACOH    H411141   2.583   5.739   1.639
  281ACOH    O211142   2.557   5.826   1.595
  281ACOH    C211143   2.551   5.801   1.463
  281ACOH    O111144   2.574   5.695   1.407
  281ACOH    C111145   2.515   5.924   1.390
  281ACOH    H111146   2.513   5.907   1.283
  281ACOH    H211147   2.586   6.003   1.412
  281ACOH    H311148   2.416   5.957   1.421
  282ACOH    H411149   3.071   7.098   0.106
  282ACOH    O211150   3.137   7.133   0.171
  282ACOH    C211151   3.077   7.129   0.292
  282ACOH    O111152   2.958   7.116   0.312
  282ACOH    C111153   3.172   7.158   0.402
  282ACOH    H111154   3.274   7.166   0.364
  282ACOH    H211155   3.168   7.078   0.475
  282ACOH    H311156   3.144   7.252   0.450
  283ACOH    H411157   3.138   6.628   2.006
  283ACOH    O211158   3.180   6.709   2.045
  283ACOH    C211159   3.251   6.771   1.948
  283ACOH    O111160   3.264   6.735   1.833
  283ACOH    C111161   3.322   6.890   2.002
  283ACOH    H111162   3.429   6.873   1.996
  283ACOH    H211163   3.294   6.908   2.105
  283ACOH    H311164   3.296   6.977   1.943
  284ACOH    H411165   3.429   6.551   3.548
  284ACOH    O211166   3.441   6.505   3.636
  284ACOH    C211167   3.338   6.419   3.646
  284ACOH    O111168   3.237   6.419   3.578
  284ACOH    C111169   3.356   6.329   3.762
  284ACOH    H111170   3.359   6.387   3.854
  284ACOH    H211171   3.449   6.274   3.752
  284ACOH    H311172   3.274   6.258   3.769
  285ACOH    H411173   2.537   5.706   3.462
  285ACOH    O211174   2.495   5.784   3.414
  285ACOH    C211175   2.533   5.773   3.285
  285ACOH    O111176   2.593   5.680   3.233
  285ACOH    C111177   2.484   5.890   3.209
  285ACOH    H111178   2.511   5.882   3.103
  285ACOH    H211179   2.528   5.981   3.249
  285ACOH    H311180   2.376   5.897   3.217
  286ACOH    H411181   3.172   6.686   3.864
  286ACOH    O211182   3.212   6.771   3.898
  286ACOH    C211183   3.295   6.817   3.802
  286ACOH    O111184   3.294   6.787   3.684
  286ACOH    C111185   3.377   6.930   3.852
  286ACOH    H111186   3.481   6.913   3.826
  286ACOH    H211187   3.369   6.938   3.960
  286ACOH    H311188   3.344   7.023   3.806
  287ACOH    H411189   3.365   6.561   5.416
  287ACOH    O211190   3.370   6.524   5.507
  287ACOH    C211191   3.277   6.426   5.514
  287ACOH    O111192   3.172   6.423   5.453
  287ACOH    C111193   3.299   6.342   5.634
  287ACOH    H111194   3.233   6.373   5.713
  287ACOH    H211195   3.402   6.350   5.668
  287ACOH    H311196   3.279   6.238   5.610
  288ACOH    H411197   2.526   5.691   5.335
  288ACOH    O211198   2.507   5.780   5.291
  288ACOH    C211199   2.532   5.765   5.160
  288ACOH    O111200   2.557   5.661   5.103
  288ACOH    C111201   2.519   5.893   5.087
  288ACOH    H111202   2.439   5.886   5.014
  288ACOH    H211203   2.612   5.917   5.036
  288ACOH    H311204   2.495   5.975   5.155
  289ACOH    H411205   3.110   7.179   3.797
  289ACOH    O211206   3.171   7.203   3.872
  289ACOH    C211207   3.118   7.149   3.983
  289ACOH    O111208   3.000   7.127   4.000
  289ACOH    C111209   3.213   7.154   4.096
  289ACOH    H111210   3.315   7.169   4.061
  289ACOH    H211211   3.209   7.060   4.152
  289ACOH    H311212   3.187   7.235   4.163
  290ACOH    H411213   3.103   6.778   5.595
  290ACOH    O211214   3.156   6.805   5.672
  290ACOH    C211215   3.273   6.852   5.623
  290ACOH    O111216   3.310   6.843   5.507
  290ACOH    C111217   3.356   6.916   5.728
  290ACOH    H111218   3.449   6.861   5.739
  290ACOH    H211219   3.304   6.917   5.823
  290ACOH    H311220   3.379   7.018   5.699
  291ACOH    H411221   3.403   6.597   7.310
  291ACOH    O211222   3.441   6.514   7.347
  291ACOH    C211223   3.335   6.429   7.351
  291ACOH    O111224   3.239   6.433   7.277
  291ACOH    C111225   3.361   6.317   7.444
  291ACOH    H111226   3.356   6.354   7.547
  291ACOH    H211227   3.459   6.275   7.427
  291ACOH    H311228   3.286   6.239   7.432
  292ACOH    H411229   2.549   5.722   7.191
  292ACOH    O211230   2.511   5.801   7.143
  292ACOH    C211231   2.518   5.772   7.011
  292ACOH    O111232   2.558   5.668   6.961
  292ACOH    C111233   2.468   5.886   6.931
  292ACOH    H111234   2.475   5.864   6.825
  292ACOH    H211235   2.526   5.975   6.953
  292ACOH    H311236   2.364   5.905   6.956
  293ACOH    H411237   3.168   6.670   7.556
  293ACOH    O211238   3.209   6.753   7.593
  293ACOH    C211239   3.304   6.793   7.507
  293ACOH    O111240   3.317   6.760   7.391
  293ACOH    C111241   3.387   6.902   7.566
  293ACOH    H111242   3.492   6.878   7.554
  293ACOH    H211243   3.366   6.912   7.673
  293ACOH    H311244   3.366   6.996   7.517
  294ACOH    H411245   3.435   6.536   9.078
  294ACOH    O211246   3.447   6.490   9.166
  294ACOH    C211247   3.338   6.410   9.179
  294ACOH    O111248   3.235   6.417   9.114
  294ACOH    C111249   3.353   6.320   9.295
  294ACOH    H111250   3.349   6.378   9.387
  294ACOH    H211251   3.448   6.268   9.290
  294ACOH    H311252   3.273   6.246   9.297
  295ACOH    H411253   2.609   5.693   8.999
  295ACOH    O211254   2.575   5.773   8.949
  295ACOH    C211255   2.581   5.741   8.818
  295ACOH    O111256   2.610   5.633   8.770
  295ACOH    C111257   2.540   5.858   8.736
  295ACOH    H111258   2.546   5.834   8.631
  295ACOH    H211259   2.605   5.942   8.757
  295ACOH    H311260   2.438   5.885   8.761
  296ACOH    H411261   3.148   7.144   7.520
  296ACOH    O211262   3.204   7.173   7.598
  296ACOH    C211263   3.139   7.133   7.709
  296ACOH    O111264   3.018   7.124   7.720
  296ACOH    C111265   3.227   7.139   7.828
  296ACOH    H111266   3.332   7.142   7.798
  296ACOH    H211267   3.211   7.051   7.890
  296ACOH    H311268   3.205   7.228   7.886
  297ACOH    H411269   3.164   6.668   9.403
  297ACOH    O211270   3.207   6.750   9.441
  297ACOH    C211271   3.287   6.800   9.345
  297ACOH    O111272   3.284   6.775   9.226
  297ACOH    C111273   3.372   6.910   9.398
  297ACOH    H111274   3.475   6.891   9.373
  297ACOH    H211275   3.364   6.915   9.507
  297ACOH    H311276   3.341   7.005   9.356
  298ACOH    H411277   3.105   7.158   9.340
  298ACOH    O211278   3.169   7.186   9.410
  298ACOH    C211279   3.123   7.137   9.527
  298ACOH    O111280   3.007   7.107   9.550
  298ACOH    C111281   3.222   7.151   9.636
  298ACOH    H111282   3.321   7.173   9.596
  298ACOH    H211283   3.227   7.058   9.693
  298ACOH    H311284   3.192   7.232   9.702
  299ACOH    H411285   3.148   8.485   0.234
  299ACOH    O211286   3.211   8.552   0.273
  299ACOH    C211287   3.243   8.637   0.173
  299ACOH    O111288   3.178   8.653   0.072
  299ACOH    C111289   3.349   8.730   0.218
  299ACOH    H111290   3.444   8.677   0.219
  299ACOH    H211291   3.328   8.766   0.317
  299ACOH    H311292   3.357   8.814   0.149
  300ACOH    H411293   3.420   8.367   1.699
  300ACOH    O211294   3.438   8.335   1.792
  300ACOH    C211295   3.365   8.223   1.809
  300ACOH    O111296   3.292   8.169   1.728
  300ACOH    C111297   3.386   8.169   1.945
  300ACOH    H111298   3.348   8.239   2.018
  300ACOH    H211299   3.492   8.154   1.962
  300ACOH    H311300   3.335   8.074   1.958
  301ACOH    H411301   3.074   8.931   0.106
  301ACOH    O211302   3.144   8.972   0.164
  301ACOH    C211303   3.089   8.989   0.285
  301ACOH    O111304   2.971   8.980   0.312
  301ACOH    C111305   3.190   9.035   0.384
  301ACOH    H111306   3.288   9.040   0.339
  301ACOH    H211307   3.193   8.966   0.468
  301ACOH    H311308   3.163   9.134   0.421
  302ACOH    H411309   3.171   8.533   2.042
  302ACOH    O211310   3.209   8.621   2.071
  302ACOH    C211311   3.298   8.658   1.977
  302ACOH    O111312   3.292   8.627   1.859
  302ACOH    C111313   3.383   8.770   2.024
  302ACOH    H111314   3.486   8.752   1.993
  302ACOH    H211315   3.380   8.777   2.132
  302ACOH    H311316   3.348   8.864   1.981
  303ACOH    H411317   3.437   8.389   3.552
  303ACOH    O211318   3.450   8.342   3.639
  303ACOH    C211319   3.344   8.259   3.651
  303ACOH    O111320   3.247   8.255   3.577
  303ACOH    C111321   3.357   8.173   3.770
  303ACOH    H111322   3.350   8.234   3.860
  303ACOH    H211323   3.453   8.123   3.769
  303ACOH    H311324   3.278   8.098   3.772
  304ACOH    H411325   2.568   7.569   3.508
  304ACOH    O211326   2.552   7.657   3.464
  304ACOH    C211327   2.546   7.632   3.332
  304ACOH    O111328   2.563   7.524   3.278
  304ACOH    C111329   2.522   7.758   3.256
  304ACOH    H111330   2.526   7.739   3.149
  304ACOH    H211331   2.598   7.831   3.282
  304ACOH    H311332   2.425   7.797   3.282
  305ACOH    H411333   3.104   9.007   1.963
  305ACOH    O211334   3.168   9.033   2.035
  305ACOH    C211335   3.118   8.984   2.150
  305ACOH    O111336   3.002   8.956   2.171
  305ACOH    C111337   3.215   8.999   2.262
  305ACOH    H111338   3.315   9.019   2.224
  305ACOH    H211339   3.218   8.907   2.320
  305ACOH    H311340   3.185   9.081   2.326
  306ACOH    H411341   3.154   8.499   3.855
  306ACOH    O211342   3.193   8.584   3.890
  306ACOH    C211343   3.275   8.635   3.796
  306ACOH    O111344   3.280   8.603   3.678
  306ACOH    C111345   3.348   8.753   3.847
  306ACOH    H111346   3.454   8.741   3.826
  306ACOH    H211347   3.336   8.762   3.955
  306ACOH    H311348   3.312   8.843   3.799
  307ACOH    H411349   3.452   8.390   5.393
  307ACOH    O211350   3.458   8.340   5.479
  307ACOH    C211351   3.346   8.264   5.483
  307ACOH    O111352   3.254   8.265   5.404
  307ACOH    C111353   3.346   8.179   5.604
  307ACOH    H111354   3.335   8.241   5.692
  307ACOH    H211355   3.439   8.124   5.610
  307ACOH    H311356   3.264   8.107   5.601
  308ACOH    H411357   2.603   7.550   5.314
  308ACOH    O211358   2.570   7.636   5.273
  308ACOH    C211359   2.557   7.614   5.141
  308ACOH    O111360   2.576   7.509   5.082
  308ACOH    C111361   2.514   7.738   5.073
  308ACOH    H111362   2.506   7.723   4.966
  308ACOH    H211363   2.586   7.817   5.092
  308ACOH    H311364   2.417   7.768   5.111
  309ACOH    H411365   3.082   9.003   3.781
  309ACOH    O211366   3.140   9.032   3.857
  309ACOH    C211367   3.089   8.975   3.967
  309ACOH    O111368   2.971   8.947   3.984
  309ACOH    C111369   3.182   8.987   4.081
  309ACOH    H111370   3.283   9.006   4.047
  309ACOH    H211371   3.182   8.894   4.139
  309ACOH    H311372   3.150   9.068   4.146
  310ACOH    H411373   3.149   8.512   5.693
  310ACOH    O211374   3.194   8.592   5.734
  310ACOH    C211375   3.285   8.637   5.646
  310ACOH    O111376   3.295   8.605   5.530
  310ACOH    C111377   3.364   8.748   5.704
  310ACOH    H111378   3.470   8.730   5.686
  310ACOH    H211379   3.349   8.756   5.811
  310ACOH    H311380   3.336   8.842   5.658
  311ACOH    H411381   3.424   8.366   7.223
  311ACOH    O211382   3.449   8.317   7.306
  311ACOH    C211383   3.337   8.257   7.349
  311ACOH    O111384   3.225   8.266   7.300
  311ACOH    C111385   3.362   8.177   7.471
  311ACOH    H111386   3.377   8.244   7.555
  311ACOH    H211387   3.452   8.117   7.458
  311ACOH    H311388   3.279   8.111   7.492
  312ACOH    H411389   3.107   9.014   5.652
  312ACOH    O211390   3.170   9.040   5.724
  312ACOH    C211391   3.122   8.984   5.837
  312ACOH    O111392   3.006   8.956   5.858
  312ACOH    C111393   3.221   8.994   5.948
  312ACOH    H111394   3.321   9.013   5.909
  312ACOH    H211395   3.222   8.900   6.003
  312ACOH    H311396   3.193   9.074   6.015
  313ACOH    H411397   3.149   8.534   7.558
  313ACOH    O211398   3.200   8.609   7.597
  313ACOH    C211399   3.292   8.649   7.507
  313ACOH    O111400   3.322   8.594   7.402
  313ACOH    C111401   3.372   8.762   7.560
  313ACOH    H111402   3.473   8.729   7.579
  313ACOH    H211403   3.330   8.799   7.653
  313ACOH    H311404   3.374   8.843   7.488
  314ACOH    H411405   3.441   8.380   9.079
  314ACOH    O211406   3.450   8.333   9.166
  314ACOH    C211407   3.341   8.254   9.177
  314ACOH    O111408   3.241   8.261   9.109
  314ACOH    C111409   3.353   8.164   9.293
  314ACOH    H111410   3.343   8.221   9.385
  314ACOH    H211411   3.449   8.114   9.293
  314ACOH    H311412   3.275   8.088   9.291
  315ACOH    H411413   2.610   7.534   9.004
  315ACOH    O211414   2.582   7.616   8.953
  315ACOH    C211415   2.578   7.582   8.823
  315ACOH    O111416   2.595   7.471   8.776
  315ACOH    C111417   2.542   7.699   8.741
  315ACOH    H111418   2.537   7.673   8.636
  315ACOH    H211419   2.617   7.777   8.754
  315ACOH    H311420   2.445   7.738   8.772
  316ACOH    H411421   3.168   9.036   7.510
  316ACOH    O211422   3.215   9.043   7.594
  316ACOH    C211423   3.132   8.995   7.689
  316ACOH    O111424   3.015   8.965   7.672
  316ACOH    C111425   3.195   8.999   7.823
  316ACOH    H111426   3.301   9.018   7.816
  316ACOH    H211427   3.180   8.903   7.873
  316ACOH    H311428   3.148   9.077   7.883
  317ACOH    H411429   3.160   8.501   9.407
  317ACOH    O211430   3.204   8.583   9.444
  317ACOH    C211431   3.284   8.633   9.348
  317ACOH    O111432   3.280   8.607   9.229
  317ACOH    C111433   3.369   8.743   9.400
  317ACOH    H111434   3.472   8.727   9.370
  317ACOH    H211435   3.365   8.746   9.509
  317ACOH    H311436   3.334   8.838   9.361
  318ACOH    H411437   3.088   8.990   9.343
  318ACOH    O211438   3.147   9.002   9.423
  318ACOH    C211439   3.080   8.954   9.529
  318ACOH    O111440   2.959   8.947   9.538
  318ACOH    C111441   3.167   8.938   9.648
  318ACOH    H111442   3.272   8.943   9.620
  318ACOH    H211443   3.148   8.842   9.696
  318ACOH    H311444   3.147   9.018   9.719
  319ACOH    H411445   2.588   9.409   1.632
  319ACOH    O211446   2.560   9.494   1.585
  319ACOH    C211447   2.557   9.464   1.454
  319ACOH    O111448   2.589   9.357   1.403
  319ACOH    C111449   2.514   9.581   1.375
  319ACOH    H111450   2.520   9.560   1.268
  319ACOH    H211451   2.578   9.667   1.397
  319ACOH    H311452   2.411   9.606   1.400
  320ACOH    H411453   2.607   9.397   3.490
  320ACOH    O211454   2.594   9.485   3.443
  320ACOH    C211455   2.579   9.456   3.312
  320ACOH    O111456   2.588   9.346   3.261
  320ACOH    C111457   2.556   9.580   3.235
  320ACOH    H111458   2.548   9.558   3.128
  320ACOH    H211459   2.638   9.649   3.250
  320ACOH    H311460   2.464   9.627   3.268
  321ACOH    H411461   2.594   9.409   5.306
  321ACOH    O211462   2.563   9.490   5.257
  321ACOH    C211463   2.570   9.458   5.126
  321ACOH    O111464   2.598   9.349   5.079
  321ACOH    C111465   2.534   9.575   5.043
  321ACOH    H111466   2.542   9.551   4.937
  321ACOH    H211467   2.600   9.659   5.066
  321ACOH    H311468   2.431   9.605   5.065
  322ACOH    H411469   2.638   9.434   7.182
  322ACOH    O211470   2.585   9.504   7.133
  322ACOH    C211471   2.569   9.458   7.007
  322ACOH    O111472   2.590   9.345   6.968
  322ACOH    C111473   2.512   9.564   6.920
  322ACOH    H111474   2.500   9.528   6.818
  322ACOH    H211475   2.578   9.651   6.919
  322ACOH    H311476   2.415   9.595   6.958
  323ACOH    H411477   2.573   9.397   9.007
  323ACOH    O211478   2.548   9.481   8.958
  323ACOH    C211479   2.555   9.451   8.827
  323ACOH    O111480   2.592   9.346   8.778
  323ACOH    C111481   2.517   9.569   8.746
  323ACOH    H111482   2.532   9.549   8.640
  323ACOH    H211483   2.577   9.655   8.774
  323ACOH    H311484   2.412   9.591   8.763
  324ACOH    H411485   4.995   1.015   0.218
  324ACOH    O211486   5.034   1.104   0.242
  324ACOH    C211487   5.053   1.171   0.127
  324ACOH    O111488   5.046   1.124   0.014
  324ACOH    C111489   5.100   1.308   0.155
  324ACOH    H111490   5.188   1.304   0.219
  324ACOH    H211491   5.023   1.364   0.206
  324ACOH    H311492   5.126   1.360   0.063
  325ACOH    H411493   5.288   0.992   1.681
  325ACOH    O211494   5.303   0.950   1.771
  325ACOH    C211495   5.194   0.875   1.794
  325ACOH    O111496   5.092   0.870   1.726
  325ACOH    C111497   5.211   0.795   1.917
  325ACOH    H111498   5.219   0.861   2.003
  325ACOH    H211499   5.302   0.735   1.910
  325ACOH    H311500   5.127   0.728   1.932
  326ACOH    H411501   4.431   0.226   1.644
  326ACOH    O211502   4.399   0.313   1.604
  326ACOH    C211503   4.387   0.291   1.472
  326ACOH    O111504   4.398   0.184   1.414
  326ACOH    C111505   4.347   0.416   1.403
  326ACOH    H111506   4.332   0.398   1.297
  326ACOH    H211507   4.426   0.490   1.415
  326ACOH    H311508   4.255   0.454   1.447
  327ACOH    H411509   5.012   1.133   2.010
  327ACOH    O211510   5.055   1.215   2.048
  327ACOH    C211511   5.143   1.261   1.957
  327ACOH    O111512   5.142   1.236   1.837
  327ACOH    C111513   5.226   1.369   2.013
  327ACOH    H111514   5.331   1.351   1.988
  327ACOH    H211515   5.218   1.372   2.121
  327ACOH    H311516   5.196   1.465   1.972
  328ACOH    H411517   5.274   0.998   3.528
  328ACOH    O211518   5.289   0.943   3.610
  328ACOH    C211519   5.177   0.870   3.625
  328ACOH    O111520   5.072   0.881   3.564
  328ACOH    C111521   5.194   0.768   3.731
  328ACOH    H111522   5.207   0.817   3.827
  328ACOH    H211523   5.283   0.709   3.710
  328ACOH    H311524   5.108   0.702   3.737
  329ACOH    H411525   4.959   1.611   1.963
  329ACOH    O211526   5.022   1.640   2.036
  329ACOH    C211527   4.977   1.587   2.151
  329ACOH    O111528   4.860   1.560   2.174
  329ACOH    C111529   5.075   1.603   2.260
  329ACOH    H111530   5.176   1.616   2.220
  329ACOH    H211531   5.075   1.515   2.323
  329ACOH    H311532   5.050   1.690   2.320
  330ACOH    H411533   5.032   1.152   3.861
  330ACOH    O211534   5.083   1.233   3.889
  330ACOH    C211535   5.174   1.257   3.793
  330ACOH    O111536   5.161   1.231   3.675
  330ACOH    C111537   5.282   1.347   3.842
  330ACOH    H111538   5.379   1.308   3.811
  330ACOH    H211539   5.280   1.354   3.950
  330ACOH    H311540   5.268   1.446   3.800
  331ACOH    H411541   5.283   1.022   5.383
  331ACOH    O211542   5.297   0.978   5.472
  331ACOH    C211543   5.189   0.900   5.492
  331ACOH    O111544   5.089   0.894   5.423
  331ACOH    C111545   5.202   0.827   5.619
  331ACOH    H111546   5.198   0.897   5.702
  331ACOH    H211547   5.297   0.774   5.622
  331ACOH    H311548   5.122   0.754   5.631
  332ACOH    H411549   4.447   0.208   5.349
  332ACOH    O211550   4.463   0.295   5.304
  332ACOH    C211551   4.438   0.275   5.174
  332ACOH    O111552   4.369   0.186   5.127
  332ACOH    C111553   4.496   0.383   5.092
  332ACOH    H111554   4.470   0.371   4.987
  332ACOH    H211555   4.604   0.382   5.102
  332ACOH    H311556   4.459   0.479   5.127
  333ACOH    H411557   5.013   1.583   3.798
  333ACOH    O211558   5.081   1.592   3.870
  333ACOH    C211559   5.020   1.564   3.987
  333ACOH    O111560   4.900   1.559   4.005
  333ACOH    C111561   5.115   1.573   4.100
  333ACOH    H111562   5.218   1.572   4.065
  333ACOH    H211563   5.100   1.489   4.168
  333ACOH    H311564   5.098   1.665   4.155
  334ACOH    H411565   5.006   1.128   5.712
  334ACOH    O211566   5.055   1.204   5.752
  334ACOH    C211567   5.125   1.265   5.655
  334ACOH    O111568   5.125   1.237   5.536
  334ACOH    C111569   5.206   1.376   5.709
  334ACOH    H111570   5.311   1.356   5.689
  334ACOH    H211571   5.192   1.386   5.816
  334ACOH    H311572   5.178   1.469   5.660
  335ACOH    H411573   5.314   1.001   7.227
  335ACOH    O211574   5.318   0.952   7.313
  335ACOH    C211575   5.200   0.887   7.324
  335ACOH    O111576   5.112   0.881   7.240
  335ACOH    C111577   5.190   0.819   7.455
  335ACOH    H111578   5.175   0.894   7.533
  335ACOH    H211579   5.281   0.764   7.476
  335ACOH    H311580   5.106   0.750   7.456
  336ACOH    H411581   4.952   1.614   5.644
  336ACOH    O211582   4.987   1.651   5.730
  336ACOH    C211583   4.927   1.582   5.829
  336ACOH    O111584   4.829   1.512   5.819
  336ACOH    C111585   4.984   1.615   5.962
  336ACOH    H111586   5.071   1.678   5.952
  336ACOH    H211587   5.012   1.524   6.014
  336ACOH    H311588   4.910   1.668   6.022
  337ACOH    H411589   4.982   1.136   7.549
  337ACOH    O211590   5.023   1.216   7.593
  337ACOH    C211591   5.139   1.241   7.530
  337ACOH    O111592   5.175   1.196   7.423
  337ACOH    C111593   5.216   1.348   7.599
  337ACOH    H111594   5.317   1.313   7.619
  337ACOH    H211595   5.169   1.375   7.693
  337ACOH    H311596   5.221   1.437   7.536
  338ACOH    H411597   5.285   1.010   9.075
  338ACOH    O211598   5.300   0.966   9.163
  338ACOH    C211599   5.193   0.887   9.183
  338ACOH    O111600   5.094   0.877   9.113
  338ACOH    C111601   5.207   0.811   9.309
  338ACOH    H111602   5.199   0.880   9.392
  338ACOH    H211603   5.304   0.763   9.312
  338ACOH    H311604   5.130   0.735   9.318
  339ACOH    H411605   4.372   0.199   9.010
  339ACOH    O211606   4.318   0.277   8.978
  339ACOH    C211607   4.358   0.302   8.852
  339ACOH    O111608   4.442   0.241   8.788
  339ACOH    C111609   4.282   0.417   8.796
  339ACOH    H111610   4.311   0.434   8.693
  339ACOH    H211611   4.303   0.506   8.854
  339ACOH    H311612   4.176   0.396   8.800
  340ACOH    H411613   5.045   1.615   7.559
  340ACOH    O211614   5.089   1.636   7.646
  340ACOH    C211615   5.001   1.605   7.742
  340ACOH    O111616   4.882   1.584   7.727
  340ACOH    C111617   5.063   1.611   7.876
  340ACOH    H111618   5.170   1.629   7.868
  340ACOH    H211619   5.048   1.516   7.927
  340ACOH    H311620   5.018   1.691   7.934
  341ACOH    H411621   4.994   1.131   9.412
  341ACOH    O211622   5.028   1.220   9.443
  341ACOH    C211623   5.114   1.264   9.349
  341ACOH    O111624   5.128   1.222   9.236
  341ACOH    C111625   5.185   1.386   9.395
  341ACOH    H111626   5.292   1.371   9.389
  341ACOH    H211627   5.160   1.410   9.498
  341ACOH    H311628   5.157   1.470   9.332
  342ACOH    H411629   4.945   1.627   9.338
  342ACOH    O211630   5.003   1.661   9.411
  342ACOH    C211631   4.951   1.614   9.527
  342ACOH    O111632   4.837   1.575   9.542
  342ACOH    C111633   5.039   1.643   9.642
  342ACOH    H111634   5.139   1.671   9.609
  342ACOH    H211635   5.047   1.555   9.705
  342ACOH    H311636   4.997   1.725   9.700
  343ACOH    H411637   4.991   2.947   0.238
  343ACOH    O211638   5.060   3.006   0.279
  343ACOH    C211639   5.088   3.102   0.189
  343ACOH    O111640   5.022   3.130   0.091
  343ACOH    C111641   5.202   3.186   0.235
  343ACOH    H111642   5.292   3.126   0.231
  343ACOH    H211643   5.186   3.217   0.338
  343ACOH    H311644   5.213   3.274   0.172
  344ACOH    H411645   5.271   2.858   1.704
  344ACOH    O211646   5.284   2.810   1.791
  344ACOH    C211647   5.176   2.731   1.805
  344ACOH    O111648   5.077   2.730   1.733
  344ACOH    C111649   5.190   2.644   1.924
  344ACOH    H111650   5.184   2.705   2.013
  344ACOH    H211651   5.285   2.593   1.921
  344ACOH    H311652   5.110   2.570   1.926
  345ACOH    H411653   4.407   1.962   1.623
  345ACOH    O211654   4.371   2.043   1.576
  345ACOH    C211655   4.398   2.028   1.445
  345ACOH    O111656   4.448   1.930   1.393
  345ACOH    C111657   4.352   2.147   1.369
  345ACOH    H111658   4.369   2.133   1.263
  345ACOH    H211659   4.406   2.235   1.403
  345ACOH    H311660   4.246   2.162   1.386
  346ACOH    H411661   4.930   3.442   0.099
  346ACOH    O211662   4.991   3.484   0.165
  346ACOH    C211663   4.944   3.446   0.286
  346ACOH    O111664   4.828   3.418   0.310
  346ACOH    C111665   5.042   3.474   0.394
  346ACOH    H111666   5.140   3.494   0.353
  346ACOH    H211667   5.048   3.387   0.460
  346ACOH    H311668   5.009   3.559   0.452
  347ACOH    H411669   4.995   2.976   2.026
  347ACOH    O211670   5.033   3.062   2.059
  347ACOH    C211671   5.126   3.105   1.973
  347ACOH    O111672   5.136   3.076   1.855
  347ACOH    C111673   5.207   3.214   2.033
  347ACOH    H111674   5.313   3.191   2.023
  347ACOH    H211675   5.184   3.226   2.138
  347ACOH    H311676   5.186   3.308   1.981
  348ACOH    H411677   4.400   2.020   3.519
  348ACOH    O211678   4.369   2.102   3.473
  348ACOH    C211679   4.383   2.082   3.341
  348ACOH    O111680   4.426   1.980   3.287
  348ACOH    C111681   4.339   2.200   3.264
  348ACOH    H111682   4.351   2.185   3.157
  348ACOH    H211683   4.396   2.288   3.294
  348ACOH    H311684   4.234   2.219   3.284
  349ACOH    H411685   4.972   3.475   1.921
  349ACOH    O211686   5.041   3.510   1.985
  349ACOH    C211687   4.982   3.503   2.106
  349ACOH    O111688   4.865   3.529   2.127
  349ACOH    C111689   5.084   3.506   2.215
  349ACOH    H111690   5.184   3.492   2.175
  349ACOH    H211691   5.063   3.426   2.285
  349ACOH    H311692   5.079   3.600   2.268
  350ACOH    H411693   5.015   2.957   3.887
  350ACOH    O211694   5.040   3.048   3.920
  350ACOH    C211695   5.151   3.084   3.853
  350ACOH    O111696   5.197   3.027   3.756
  350ACOH    C111697   5.225   3.191   3.923
  350ACOH    H111698   5.306   3.147   3.982
  350ACOH    H211699   5.160   3.247   3.989
  350ACOH    H311700   5.269   3.259   3.851
  351ACOH    H411701   5.291   2.880   5.405
  351ACOH    O211702   5.305   2.831   5.491
  351ACOH    C211703   5.202   2.743   5.498
  351ACOH    O111704   5.110   2.732   5.420
  351ACOH    C111705   5.215   2.660   5.620
  351ACOH    H111706   5.209   2.724   5.708
  351ACOH    H211707   5.310   2.609   5.620
  351ACOH    H311708   5.135   2.587   5.625
  352ACOH    H411709   4.445   2.037   5.352
  352ACOH    O211710   4.409   2.123   5.315
  352ACOH    C211711   4.382   2.098   5.185
  352ACOH    O111712   4.394   1.992   5.127
  352ACOH    C111713   4.330   2.221   5.120
  352ACOH    H111714   4.310   2.202   5.015
  352ACOH    H211715   4.404   2.300   5.129
  352ACOH    H311716   4.239   2.252   5.169
  353ACOH    H411717   5.001   2.947   5.701
  353ACOH    O211718   5.049   3.024   5.741
  353ACOH    C211719   5.120   3.086   5.645
  353ACOH    O111720   5.112   3.068   5.525
  353ACOH    C111721   5.203   3.195   5.700
  353ACOH    H111722   5.306   3.182   5.669
  353ACOH    H211723   5.200   3.195   5.809
  353ACOH    H311724   5.168   3.291   5.664
  354ACOH    H411725   5.254   2.869   7.260
  354ACOH    O211726   5.269   2.819   7.345
  354ACOH    C211727   5.162   2.738   7.358
  354ACOH    O111728   5.061   2.738   7.291
  354ACOH    C111729   5.178   2.652   7.478
  354ACOH    H111730   5.178   2.714   7.567
  354ACOH    H211731   5.272   2.597   7.472
  354ACOH    H311732   5.096   2.580   7.485
  355ACOH    H411733   4.242   1.942   7.042
  355ACOH    O211734   4.267   2.035   7.065
  355ACOH    C211735   4.348   2.075   6.965
  355ACOH    O111736   4.408   2.003   6.887
  355ACOH    C111737   4.370   2.222   6.971
  355ACOH    H111738   4.438   2.254   6.893
  355ACOH    H211739   4.413   2.249   7.068
  355ACOH    H311740   4.275   2.273   6.959
  356ACOH    H411741   4.944   3.467   5.637
  356ACOH    O211742   5.009   3.491   5.708
  356ACOH    C211743   4.957   3.446   5.824
  356ACOH    O111744   4.838   3.435   5.848
  356ACOH    C111745   5.056   3.455   5.934
  356ACOH    H111746   5.157   3.453   5.894
  356ACOH    H211747   5.043   3.370   6.001
  356ACOH    H311748   5.042   3.547   5.989
  357ACOH    H411749   4.994   2.985   7.583
  357ACOH    O211750   5.044   3.064   7.620
  357ACOH    C211751   5.120   3.114   7.521
  357ACOH    O111752   5.110   3.091   7.402
  357ACOH    C111753   5.208   3.222   7.571
  357ACOH    H111754   5.310   3.203   7.538
  357ACOH    H211755   5.208   3.225   7.680
  357ACOH    H311756   5.176   3.318   7.532
  358ACOH    H411757   5.287   2.847   9.078
  358ACOH    O211758   5.301   2.801   9.165
  358ACOH    C211759   5.197   2.716   9.178
  358ACOH    O111760   5.101   2.706   9.104
  358ACOH    C111761   5.213   2.633   9.299
  358ACOH    H111762   5.205   2.695   9.387
  358ACOH    H211763   5.311   2.585   9.299
  358ACOH    H311764   5.136   2.556   9.303
  359ACOH    H411765   4.460   1.993   8.997
  359ACOH    O211766   4.432   2.076   8.947
  359ACOH    C211767   4.427   2.043   8.816
  359ACOH    O111768   4.446   1.933   8.768
  359ACOH    C111769   4.391   2.162   8.735
  359ACOH    H111770   4.393   2.139   8.629
  359ACOH    H211771   4.462   2.243   8.755
  359ACOH    H311772   4.291   2.196   8.762
  360ACOH    H411773   4.939   3.486   7.488
  360ACOH    O211774   4.994   3.511   7.568
  360ACOH    C211775   4.946   3.437   7.670
  360ACOH    O111776   4.848   3.365   7.666
  360ACOH    C111777   5.022   3.459   7.795
  360ACOH    H111778   5.111   3.518   7.777
  360ACOH    H211779   5.050   3.363   7.838
  360ACOH    H311780   4.959   3.512   7.866
  361ACOH    H411781   5.055   2.988   9.421
  361ACOH    O211782   5.105   3.065   9.461
  361ACOH    C211783   5.181   3.117   9.364
  361ACOH    O111784   5.181   3.089   9.246
  361ACOH    C111785   5.273   3.221   9.419
  361ACOH    H111786   5.376   3.190   9.403
  361ACOH    H211787   5.256   3.235   9.525
  361ACOH    H311788   5.255   3.315   9.368
  362ACOH    H411789   4.995   3.416   9.353
  362ACOH    O211790   5.046   3.438   9.437
  362ACOH    C211791   4.958   3.439   9.538
  362ACOH    O111792   4.838   3.456   9.530
  362ACOH    C111793   5.028   3.443   9.669
  362ACOH    H111794   5.135   3.429   9.656
  362ACOH    H211795   4.990   3.364   9.733
  362ACOH    H311796   5.010   3.539   9.717
  363ACOH    H411797   4.974   4.791   0.227
  363ACOH    O211798   5.031   4.855   0.278
  363ACOH    C211799   5.088   4.937   0.188
  363ACOH    O111800   5.050   4.954   0.073
  363ACOH    C111801   5.186   5.026   0.253
  363ACOH    H111802   5.277   4.970   0.275
  363ACOH    H211803   5.146   5.062   0.347
  363ACOH    H311804   5.209   5.112   0.190
  364ACOH    H411805   5.272   4.700   1.702
  364ACOH    O211806   5.281   4.651   1.789
  364ACOH    C211807   5.177   4.565   1.793
  364ACOH    O111808   5.084   4.561   1.715
  364ACOH    C111809   5.183   4.480   1.914
  364ACOH    H111810   5.173   4.542   2.002
  364ACOH    H211811   5.278   4.428   1.918
  364ACOH    H311812   5.103   4.406   1.913
  365ACOH    H411813   4.423   3.901   1.634
  365ACOH    O211814   4.394   3.984   1.586
  365ACOH    C211815   4.393   3.953   1.455
  365ACOH    O111816   4.422   3.845   1.405
  365ACOH    C111817   4.354   4.071   1.375
  365ACOH    H111818   4.357   4.048   1.268
  365ACOH    H211819   4.421   4.154   1.395
  365ACOH    H311820   4.253   4.101   1.401
  366ACOH    H411821   4.903   5.213   0.126
  366ACOH    O211822   4.970   5.252   0.189
  366ACOH    C211823   4.902   5.282   0.302
  366ACOH    O111824   4.782   5.296   0.311
  366ACOH    C111825   4.995   5.316   0.412
  366ACOH    H111826   5.099   5.302   0.383
  366ACOH    H211827   4.975   5.252   0.498
  366ACOH    H311828   4.980   5.420   0.442
  367ACOH    H411829   5.004   4.849   2.003
  367ACOH    O211830   5.042   4.936   2.034
  367ACOH    C211831   5.140   4.971   1.949
  367ACOH    O111832   5.153   4.933   1.834
  367ACOH    C111833   5.220   5.083   2.003
  367ACOH    H111834   5.326   5.063   1.987
  367ACOH    H211835   5.204   5.093   2.110
  367ACOH    H311836   5.193   5.175   1.954
  368ACOH    H411837   5.311   4.678   3.517
  368ACOH    O211838   5.321   4.643   3.610
  368ACOH    C211839   5.235   4.539   3.619
  368ACOH    O111840   5.162   4.495   3.532
  368ACOH    C111841   5.245   4.479   3.754
  368ACOH    H111842   5.210   4.550   3.828
  368ACOH    H211843   5.348   4.453   3.774
  368ACOH    H311844   5.185   4.389   3.760
  369ACOH    H411845   4.505   3.830   3.490
  369ACOH    O211846   4.467   3.917   3.468
  369ACOH    C211847   4.399   3.901   3.353
  369ACOH    O111848   4.385   3.796   3.292
  369ACOH    C111849   4.342   4.030   3.307
  369ACOH    H111850   4.294   4.018   3.210
  369ACOH    H211851   4.421   4.104   3.298
  369ACOH    H311852   4.268   4.064   3.378
  370ACOH    H411853   4.946   5.320   1.953
  370ACOH    O211854   5.013   5.347   2.022
  370ACOH    C211855   4.960   5.316   2.142
  370ACOH    O111856   4.841   5.315   2.168
  370ACOH    C111857   5.062   5.318   2.249
  370ACOH    H111858   5.163   5.319   2.208
  370ACOH    H211859   5.052   5.229   2.311
  370ACOH    H311860   5.049   5.406   2.311
  371ACOH    H411861   5.018   4.795   3.871
  371ACOH    O211862   5.055   4.880   3.908
  371ACOH    C211863   5.127   4.939   3.811
  371ACOH    O111864   5.108   4.926   3.691
  371ACOH    C111865   5.206   5.053   3.863
  371ACOH    H111866   5.307   5.048   3.824
  371ACOH    H211867   5.211   5.050   3.972
  371ACOH    H311868   5.161   5.147   3.832
  372ACOH    H411869   5.245   4.720   5.380
  372ACOH    O211870   5.255   4.670   5.467
  372ACOH    C211871   5.146   4.592   5.478
  372ACOH    O111872   5.046   4.593   5.408
  372ACOH    C111873   5.158   4.507   5.598
  372ACOH    H111874   5.179   4.569   5.685
  372ACOH    H211875   5.239   4.437   5.583
  372ACOH    H311876   5.066   4.451   5.615
  373ACOH    H411877   4.392   3.857   5.370
  373ACOH    O211878   4.358   3.946   5.339
  373ACOH    C211879   4.342   3.936   5.206
  373ACOH    O111880   4.369   3.840   5.136
  373ACOH    C111881   4.287   4.063   5.153
  373ACOH    H111882   4.274   4.058   5.045
  373ACOH    H211883   4.354   4.145   5.178
  373ACOH    H311884   4.191   4.083   5.199
  374ACOH    H411885   4.986   5.332   3.837
  374ACOH    O211886   5.043   5.359   3.916
  374ACOH    C211887   4.995   5.289   4.021
  374ACOH    O111888   4.881   5.248   4.033
  374ACOH    C111889   5.088   5.295   4.137
  374ACOH    H111890   5.188   5.323   4.104
  374ACOH    H211891   5.092   5.199   4.186
  374ACOH    H311892   5.053   5.370   4.207
  375ACOH    H411893   4.985   4.824   5.707
  375ACOH    O211894   5.031   4.897   5.758
  375ACOH    C211895   5.113   4.962   5.675
  375ACOH    O111896   5.125   4.945   5.555
  375ACOH    C111897   5.191   5.066   5.746
  375ACOH    H111898   5.297   5.044   5.740
  375ACOH    H211899   5.163   5.070   5.851
  375ACOH    H311900   5.172   5.163   5.701
  376ACOH    H411901   4.419   3.887   7.138
  376ACOH    O211902   4.390   3.968   7.086
  376ACOH    C211903   4.395   3.933   6.957
  376ACOH    O111904   4.424   3.824   6.911
  376ACOH    C111905   4.355   4.048   6.872
  376ACOH    H111906   4.358   4.021   6.767
  376ACOH    H211907   4.422   4.132   6.890
  376ACOH    H311908   4.254   4.079   6.897
  377ACOH    H411909   4.938   5.334   5.682
  377ACOH    O211910   5.004   5.355   5.755
  377ACOH    C211911   4.949   5.313   5.870
  377ACOH    O111912   4.830   5.295   5.890
  377ACOH    C111913   5.047   5.316   5.981
  377ACOH    H111914   5.148   5.328   5.943
  377ACOH    H211915   5.043   5.223   6.037
  377ACOH    H311916   5.025   5.398   6.048
  378ACOH    H411917   5.268   4.663   9.075
  378ACOH    O211918   5.277   4.621   9.166
  378ACOH    C211919   5.186   4.522   9.172
  378ACOH    O111920   5.113   4.481   9.083
  378ACOH    C111921   5.189   4.459   9.306
  378ACOH    H111922   5.144   4.525   9.379
  378ACOH    H211923   5.292   4.443   9.334
  378ACOH    H311924   5.137   4.364   9.306
  379ACOH    H411925   4.380   3.827   9.041
  379ACOH    O211926   4.365   3.904   8.979
  379ACOH    C211927   4.410   3.868   8.858
  379ACOH    O111928   4.463   3.762   8.828
  379ACOH    C111929   4.393   3.980   8.762
  379ACOH    H111930   4.428   3.952   8.663
  379ACOH    H211931   4.449   4.066   8.797
  379ACOH    H311932   4.288   4.007   8.757
  380ACOH    H411933   5.006   4.827   9.417
  380ACOH    O211934   5.054   4.905   9.455
  380ACOH    C211935   5.132   4.954   9.357
  380ACOH    O111936   5.123   4.930   9.238
  380ACOH    C111937   5.224   5.059   9.408
  380ACOH    H111938   5.325   5.037   9.377
  380ACOH    H211939   5.221   5.064   9.517
  380ACOH    H311940   5.195   5.156   9.368
  381ACOH    H411941   4.949   5.314   9.352
  381ACOH    O211942   5.015   5.331   9.425
  381ACOH    C211943   4.960   5.285   9.539
  381ACOH    O111944   4.842   5.261   9.558
  381ACOH    C111945   5.057   5.287   9.651
  381ACOH    H111946   5.158   5.303   9.614
  381ACOH    H211947   5.055   5.192   9.704
  381ACOH    H311948   5.032   5.367   9.720
  382ACOH    H411949   5.001   6.699   0.166
  382ACOH    O211950   5.042   6.788   0.184
  382ACOH    C211951   5.172   6.779   0.148
  382ACOH    O111952   5.229   6.679   0.111
  382ACOH    C111953   5.241   6.907   0.174
  382ACOH    H111954   5.345   6.902   0.144
  382ACOH    H211955   5.238   6.929   0.281
  382ACOH    H311956   5.192   6.988   0.121
  383ACOH    H411957   5.286   6.542   1.689
  383ACOH    O211958   5.290   6.500   1.779
  383ACOH    C211959   5.180   6.423   1.788
  383ACOH    O111960   5.084   6.425   1.712
  383ACOH    C111961   5.179   6.345   1.914
  383ACOH    H111962   5.173   6.413   1.998
  383ACOH    H211963   5.271   6.287   1.921
  383ACOH    H311964   5.095   6.277   1.916
  384ACOH    H411965   4.431   5.704   1.658
  384ACOH    O211966   4.402   5.788   1.611
  384ACOH    C211967   4.394   5.757   1.480
  384ACOH    O111968   4.420   5.649   1.428
  384ACOH    C111969   4.349   5.875   1.402
  384ACOH    H111970   4.344   5.852   1.296
  384ACOH    H211971   4.417   5.958   1.418
  384ACOH    H311972   4.250   5.904   1.436
  385ACOH    H411973   4.989   7.199   0.171
  385ACOH    O211974   5.036   7.169   0.253
  385ACOH    C211975   4.943   7.110   0.331
  385ACOH    O111976   4.832   7.074   0.297
  385ACOH    C111977   4.993   7.090   0.469
  385ACOH    H111978   5.096   7.121   0.478
  385ACOH    H211979   4.985   6.986   0.497
  385ACOH    H311980   4.933   7.149   0.538
  386ACOH    H411981   5.273   6.529   3.555
  386ACOH    O211982   5.282   6.480   3.640
  386ACOH    C211983   5.184   6.388   3.642
  386ACOH    O111984   5.083   6.390   3.574
  386ACOH    C111985   5.199   6.296   3.757
  386ACOH    H111986   5.197   6.353   3.849
  386ACOH    H211987   5.295   6.245   3.750
  386ACOH    H311988   5.120   6.222   3.758
  387ACOH    H411989   4.429   5.753   3.479
  387ACOH    O211990   4.397   5.836   3.432
  387ACOH    C211991   4.395   5.807   3.301
  387ACOH    O111992   4.417   5.698   3.250
  387ACOH    C111993   4.354   5.924   3.220
  387ACOH    H111994   4.259   5.903   3.171
  387ACOH    H211995   4.429   5.945   3.145
  387ACOH    H311996   4.342   6.012   3.283
  388ACOH    H411997   5.005   6.684   3.821
  388ACOH    O211998   5.053   6.761   3.862
  388ACOH    C211999   5.150   6.796   3.776
  388ACOH    O112000   5.147   6.778   3.655
  388ACOH    C112001   5.244   6.893   3.838
  388ACOH    H112002   5.345   6.869   3.807
  388ACOH    H212003   5.239   6.886   3.946
  388ACOH    H312004   5.219   6.994   3.807
  389ACOH    H412005   5.257   6.596   5.452
  389ACOH    O212006   5.262   6.544   5.537
  389ACOH    C212007   5.180   6.438   5.519
  389ACOH    O112008   5.094   6.427   5.434
  389ACOH    C112009   5.194   6.343   5.632
  389ACOH    H112010   5.173   6.394   5.725
  389ACOH    H212011   5.295   6.305   5.634
  389ACOH    H312012   5.125   6.260   5.621
  390ACOH    H412013   4.415   5.706   5.333
  390ACOH    O212014   4.399   5.795   5.288
  390ACOH    C212015   4.406   5.774   5.155
  390ACOH    O112016   4.431   5.669   5.100
  390ACOH    C112017   4.379   5.900   5.083
  390ACOH    H112018   4.382   5.886   4.976
  390ACOH    H212019   4.452   5.975   5.111
  390ACOH    H312020   4.280   5.937   5.110
  391ACOH    H412021   4.975   7.099   3.847
  391ACOH    O212022   5.033   7.132   3.922
  391ACOH    C212023   4.960   7.120   4.034
  391ACOH    O112024   4.839   7.129   4.040
  391ACOH    C112025   5.046   7.142   4.153
  391ACOH    H112026   5.151   7.128   4.128
  391ACOH    H212027   5.019   7.071   4.230
  391ACOH    H312028   5.031   7.243   4.191
  392ACOH    H412029   5.034   6.642   5.737
  392ACOH    O212030   5.106   6.704   5.767
  392ACOH    C212031   5.126   6.794   5.668
  392ACOH    O112032   5.078   6.791   5.556
  392ACOH    C112033   5.228   6.895   5.707
  392ACOH    H112034   5.318   6.879   5.648
  392ACOH    H212035   5.253   6.887   5.812
  392ACOH    H312036   5.190   6.994   5.687
  393ACOH    H412037   5.265   6.495   7.212
  393ACOH    O212038   5.280   6.457   7.303
  393ACOH    C212039   5.180   6.369   7.323
  393ACOH    O112040   5.099   6.330   7.240
  393ACOH    C112041   5.187   6.313   7.460
  393ACOH    H112042   5.167   6.392   7.532
  393ACOH    H212043   5.287   6.273   7.478
  393ACOH    H312044   5.115   6.234   7.473
  394ACOH    H412045   4.395   5.698   7.235
  394ACOH    O212046   4.374   5.784   7.191
  394ACOH    C212047   4.401   5.767   7.060
  394ACOH    O112048   4.429   5.662   7.005
  394ACOH    C112049   4.382   5.892   6.982
  394ACOH    H112050   4.299   5.880   6.914
  394ACOH    H212051   4.472   5.913   6.926
  394ACOH    H312052   4.361   5.976   7.049
  395ACOH    H412053   4.941   7.153   5.629
  395ACOH    O212054   5.002   7.179   5.704
  395ACOH    C212055   4.938   7.145   5.817
  395ACOH    O112056   4.817   7.139   5.831
  395ACOH    C112057   5.029   7.153   5.934
  395ACOH    H112058   5.133   7.153   5.903
  395ACOH    H212059   5.012   7.067   5.999
  395ACOH    H312060   5.008   7.243   5.990
  396ACOH    H412061   4.992   6.638   7.565
  396ACOH    O212062   5.044   6.716   7.601
  396ACOH    C212063   5.117   6.765   7.500
  396ACOH    O112064   5.110   6.733   7.383
  396ACOH    C112065   5.202   6.878   7.545
  396ACOH    H112066   5.306   6.859   7.518
  396ACOH    H212067   5.197   6.890   7.653
  396ACOH    H312068   5.170   6.970   7.497
  397ACOH    H412069   5.272   6.530   9.046
  397ACOH    O212070   5.289   6.493   9.137
  397ACOH    C212071   5.178   6.423   9.170
  397ACOH    O112072   5.077   6.412   9.104
  397ACOH    C112073   5.196   6.359   9.302
  397ACOH    H112074   5.198   6.436   9.379
  397ACOH    H212075   5.290   6.304   9.303
  397ACOH    H312076   5.115   6.290   9.322
  398ACOH    H412077   4.450   5.695   8.993
  398ACOH    O212078   4.414   5.775   8.944
  398ACOH    C212079   4.417   5.744   8.813
  398ACOH    O112080   4.445   5.636   8.764
  398ACOH    C112081   4.373   5.860   8.733
  398ACOH    H112082   4.374   5.836   8.626
  398ACOH    H212083   4.439   5.945   8.751
  398ACOH    H312084   4.272   5.888   8.761
  399ACOH    H412085   4.921   7.119   7.516
  399ACOH    O212086   4.993   7.133   7.584
  399ACOH    C212087   4.938   7.113   7.706
  399ACOH    O112088   4.819   7.114   7.731
  399ACOH    C112089   5.041   7.123   7.812
  399ACOH    H112090   5.141   7.118   7.771
  399ACOH    H212091   5.028   7.042   7.883
  399ACOH    H312092   5.029   7.217   7.865
  400ACOH    H412093   4.925   6.647   9.418
  400ACOH    O212094   4.929   6.747   9.420
  400ACOH    C212095   5.038   6.783   9.350
  400ACOH    O112096   5.099   6.715   9.269
  400ACOH    C112097   5.069   6.926   9.371
  400ACOH    H112098   5.145   6.959   9.301
  400ACOH    H212099   5.107   6.939   9.472
  400ACOH    H312100   4.980   6.986   9.358
  401ACOH    H412101   5.239   8.442   1.711
  401ACOH    O212102   5.240   8.393   1.798
  401ACOH    C212103   5.150   8.293   1.785
  401ACOH    O112104   5.078   8.270   1.690
  401ACOH    C112105   5.150   8.209   1.907
  401ACOH    H112106   5.123   8.269   1.993
  401ACOH    H212107   5.248   8.166   1.923
  401ACOH    H312108   5.078   8.128   1.898
  402ACOH    H412109   4.368   7.579   1.628
  402ACOH    O212110   4.334   7.659   1.578
  402ACOH    C212111   4.346   7.627   1.448
  402ACOH    O112112   4.392   7.524   1.401
  402ACOH    C112113   4.299   7.738   1.363
  402ACOH    H112114   4.311   7.715   1.257
  402ACOH    H212115   4.357   7.828   1.385
  402ACOH    H312116   4.194   7.758   1.383
  403ACOH    H412117   4.990   8.478   2.037
  403ACOH    O212118   5.074   8.525   2.061
  403ACOH    C212119   5.101   8.613   1.963
  403ACOH    O112120   5.031   8.638   1.866
  403ACOH    C112121   5.232   8.679   1.984
  403ACOH    H112122   5.297   8.659   1.900
  403ACOH    H212123   5.279   8.643   2.075
  403ACOH    H312124   5.218   8.787   1.993
  404ACOH    H412125   4.477   7.592   3.462
  404ACOH    O212126   4.453   7.681   3.420
  404ACOH    C212127   4.372   7.654   3.316
  404ACOH    O112128   4.332   7.545   3.281
  404ACOH    C112129   4.334   7.781   3.248
  404ACOH    H112130   4.276   7.759   3.159
  404ACOH    H212131   4.423   7.835   3.219
  404ACOH    H312132   4.275   7.842   3.315
  405ACOH    H412133   5.072   8.979   2.005
  405ACOH    O212134   5.102   9.016   2.093
  405ACOH    C212135   5.064   8.926   2.186
  405ACOH    O112136   4.980   8.839   2.173
  405ACOH    C112137   5.123   8.957   2.319
  405ACOH    H112138   5.204   9.028   2.309
  405ACOH    H212139   5.160   8.866   2.364
  405ACOH    H312140   5.046   9.000   2.383
  406ACOH    H412141   5.256   8.368   5.407
  406ACOH    O212142   5.270   8.323   5.494
  406ACOH    C212143   5.173   8.230   5.503
  406ACOH    O112144   5.082   8.213   5.423
  406ACOH    C112145   5.187   8.151   5.627
  406ACOH    H112146   5.176   8.216   5.713
  406ACOH    H212147   5.285   8.105   5.630
  406ACOH    H312148   5.112   8.073   5.631
  407ACOH    H412149   4.431   7.569   5.328
  407ACOH    O212150   4.410   7.654   5.280
  407ACOH    C212151   4.402   7.624   5.149
  407ACOH    O112152   4.425   7.516   5.098
  407ACOH    C112153   4.366   7.744   5.071
  407ACOH    H112154   4.364   7.722   4.965
  407ACOH    H212155   4.438   7.823   5.090
  407ACOH    H312156   4.267   7.779   5.101
  408ACOH    H412157   4.999   8.872   3.786
  408ACOH    O212158   5.062   8.867   3.863
  408ACOH    C212159   4.988   8.852   3.974
  408ACOH    O112160   4.869   8.824   3.981
  408ACOH    C112161   5.069   8.869   4.097
  408ACOH    H112162   5.174   8.887   4.071
  408ACOH    H212163   5.062   8.780   4.158
  408ACOH    H312164   5.032   8.954   4.153
  409ACOH    H412165   4.986   8.484   5.703
  409ACOH    O212166   5.023   8.569   5.739
  409ACOH    C212167   5.095   8.627   5.641
  409ACOH    O112168   5.111   8.587   5.527
  409ACOH    C112169   5.159   8.752   5.689
  409ACOH    H112170   5.267   8.741   5.686
  409ACOH    H212171   5.129   8.775   5.790
  409ACOH    H312172   5.130   8.835   5.624
  410ACOH    H412173   4.434   7.535   7.176
  410ACOH    O212174   4.402   7.616   7.127
  410ACOH    C212175   4.396   7.584   6.996
  410ACOH    O112176   4.425   7.477   6.945
  410ACOH    C112177   4.349   7.700   6.918
  410ACOH    H112178   4.350   7.678   6.811
  410ACOH    H212179   4.412   7.786   6.937
  410ACOH    H312180   4.247   7.725   6.947
  411ACOH    H412181   5.264   8.379   9.070
  411ACOH    O212182   5.281   8.327   9.153
  411ACOH    C212183   5.181   8.237   9.160
  411ACOH    O112184   5.073   8.245   9.104
  411ACOH    C112185   5.210   8.136   9.264
  411ACOH    H112186   5.228   8.185   9.359
  411ACOH    H212187   5.299   8.080   9.236
  411ACOH    H312188   5.127   8.067   9.275
  412ACOH    H412189   4.378   7.532   9.039
  412ACOH    O212190   4.365   7.618   8.990
  412ACOH    C212191   4.377   7.590   8.859
  412ACOH    O112192   4.406   7.482   8.810
  412ACOH    C112193   4.354   7.712   8.778
  412ACOH    H112194   4.367   7.691   8.672
  412ACOH    H212195   4.423   7.790   8.808
  412ACOH    H312196   4.252   7.747   8.794
  413ACOH    H412197   4.951   9.038   7.500
  413ACOH    O212198   5.018   9.052   7.573
  413ACOH    C212199   4.967   8.990   7.682
  413ACOH    O112200   4.849   8.966   7.700
  413ACOH    C112201   5.066   8.980   7.791
  413ACOH    H112202   5.167   9.000   7.754
  413ACOH    H212203   5.064   8.880   7.833
  413ACOH    H312204   5.042   9.052   7.869
  414ACOH    H412205   5.022   8.502   9.375
  414ACOH    O212206   5.067   8.584   9.408
  414ACOH    C212207   5.155   8.622   9.313
  414ACOH    O112208   5.144   8.603   9.194
  414ACOH    C112209   5.252   8.721   9.367
  414ACOH    H112210   5.353   8.694   9.336
  414ACOH    H212211   5.249   8.722   9.476
  414ACOH    H312212   5.228   8.820   9.330
  415ACOH    H412213   4.992   8.975   9.342
  415ACOH    O212214   5.062   8.985   9.411
  415ACOH    C212215   5.002   8.975   9.532
  415ACOH    O112216   4.885   9.000   9.553
  415ACOH    C112217   5.102   8.973   9.641
  415ACOH    H112218   5.201   8.948   9.604
  415ACOH    H212219   5.073   8.898   9.715
  415ACOH    H312220   5.106   9.070   9.690
  416ACOH    H412221   4.470   9.395   3.487
  416ACOH    O212222   4.442   9.477   3.435
  416ACOH    C212223   4.411   9.435   3.311
  416ACOH    O112224   4.427   9.323   3.265
  416ACOH    C112225   4.361   9.548   3.230
  416ACOH    H112226   4.346   9.518   3.127
  416ACOH    H212227   4.432   9.630   3.233
  416ACOH    H312228   4.266   9.582   3.271
  417ACOH    H412229   4.394   9.399   9.012
  417ACOH    O212230   4.368   9.480   8.959
  417ACOH    C212231   4.388   9.449   8.830
  417ACOH    O112232   4.424   9.341   8.786
  417ACOH    C112233   4.361   9.566   8.744
  417ACOH    H112234   4.378   9.542   8.639
  417ACOH    H212235   4.425   9.649   8.771
  417ACOH    H312236   4.257   9.596   8.756
  418ACOH    H412237   6.834   1.073   0.196
  418ACOH    O212238   6.881   1.149   0.239
  418ACOH    C212239   6.904   1.239   0.142
  418ACOH    O112240   6.836   1.252   0.042
  418ACOH    C112241   6.999   1.342   0.188
  418ACOH    H112242   7.099   1.298   0.195
  418ACOH    H212243   6.970   1.379   0.286
  418ACOH    H312244   7.003   1.426   0.119
  419ACOH    H412245   7.092   1.023   1.712
  419ACOH    O212246   7.102   0.980   1.801
  419ACOH    C212247   7.010   0.882   1.807
  419ACOH    O112248   6.926   0.856   1.722
  419ACOH    C112249   7.018   0.811   1.936
  419ACOH    H112250   6.997   0.880   2.016
  419ACOH    H212251   7.119   0.772   1.949
  419ACOH    H312252   6.947   0.729   1.940
  420ACOH    H412253   6.282   0.254   1.662
  420ACOH    O212254   6.248   0.337   1.619
  420ACOH    C212255   6.232   0.307   1.489
  420ACOH    O112256   6.247   0.198   1.437
  420ACOH    C112257   6.190   0.427   1.413
  420ACOH    H112258   6.170   0.402   1.309
  420ACOH    H212259   6.269   0.501   1.417
  420ACOH    H312260   6.100   0.469   1.458
  421ACOH    H412261   6.743   1.573   0.118
  421ACOH    O212262   6.804   1.612   0.186
  421ACOH    C212263   6.744   1.596   0.305
  421ACOH    O112264   6.626   1.575   0.325
  421ACOH    C112265   6.837   1.629   0.417
  421ACOH    H112266   6.938   1.644   0.379
  421ACOH    H212267   6.838   1.547   0.489
  421ACOH    H312268   6.803   1.719   0.466
  422ACOH    H412269   6.824   1.146   2.018
  422ACOH    O212270   6.868   1.227   2.055
  422ACOH    C212271   6.952   1.274   1.960
  422ACOH    O112272   6.956   1.242   1.843
  422ACOH    C112273   7.037   1.383   2.014
  422ACOH    H112274   7.142   1.359   1.997
  422ACOH    H212275   7.021   1.396   2.120
  422ACOH    H312276   7.014   1.476   1.962
  423ACOH    H412277   7.118   1.016   3.534
  423ACOH    O212278   7.134   0.971   3.622
  423ACOH    C212279   7.026   0.893   3.643
  423ACOH    O112280   6.929   0.881   3.571
  423ACOH    C112281   7.040   0.819   3.770
  423ACOH    H112282   7.034   0.889   3.852
  423ACOH    H212283   7.136   0.768   3.774
  423ACOH    H312284   6.961   0.745   3.781
  424ACOH    H412285   6.258   0.244   3.509
  424ACOH    O212286   6.224   0.330   3.471
  424ACOH    C212287   6.219   0.313   3.338
  424ACOH    O112288   6.235   0.209   3.277
  424ACOH    C112289   6.179   0.439   3.271
  424ACOH    H112290   6.166   0.424   3.164
  424ACOH    H212291   6.256   0.514   3.288
  424ACOH    H312292   6.085   0.475   3.313
  425ACOH    H412293   6.806   1.612   1.974
  425ACOH    O212294   6.857   1.655   2.049
  425ACOH    C212295   6.803   1.606   2.162
  425ACOH    O112296   6.684   1.584   2.177
  425ACOH    C112297   6.893   1.628   2.278
  425ACOH    H112298   6.996   1.642   2.245
  425ACOH    H212299   6.889   1.542   2.344
  425ACOH    H312300   6.861   1.717   2.333
  426ACOH    H412301   6.847   1.138   3.863
  426ACOH    O212302   6.893   1.218   3.902
  426ACOH    C212303   6.975   1.269   3.809
  426ACOH    O112304   6.976   1.242   3.690
  426ACOH    C112305   7.057   1.379   3.864
  426ACOH    H112306   7.162   1.361   3.841
  426ACOH    H212307   7.047   1.385   3.972
  426ACOH    H312308   7.026   1.474   3.820
  427ACOH    H412309   6.234   0.222   5.299
  427ACOH    O212310   6.179   0.298   5.263
  427ACOH    C212311   6.213   0.312   5.134
  427ACOH    O112312   6.287   0.240   5.069
  427ACOH    C112313   6.143   0.428   5.075
  427ACOH    H112314   6.159   0.433   4.968
  427ACOH    H212315   6.179   0.520   5.120
  427ACOH    H312316   6.036   0.419   5.095
  428ACOH    H412317   6.785   1.628   3.804
  428ACOH    O212318   6.849   1.653   3.877
  428ACOH    C212319   6.800   1.600   3.991
  428ACOH    O112320   6.684   1.569   4.011
  428ACOH    C112321   6.897   1.612   4.102
  428ACOH    H112322   6.997   1.633   4.065
  428ACOH    H212323   6.899   1.520   4.159
  428ACOH    H312324   6.867   1.693   4.168
  429ACOH    H412325   7.150   1.017   7.232
  429ACOH    O212326   7.158   0.970   7.320
  429ACOH    C212327   7.069   0.869   7.317
  429ACOH    O112328   6.991   0.844   7.227
  429ACOH    C112329   7.069   0.794   7.445
  429ACOH    H112330   7.036   0.859   7.525
  429ACOH    H212331   7.169   0.758   7.467
  429ACOH    H312332   7.002   0.709   7.440
  430ACOH    H412333   6.232   0.113   7.185
  430ACOH    O212334   6.171   0.191   7.167
  430ACOH    C212335   6.141   0.185   7.036
  430ACOH    O112336   6.192   0.112   6.953
  430ACOH    C112337   6.044   0.292   7.003
  430ACOH    H112338   6.030   0.300   6.896
  430ACOH    H212339   6.079   0.387   7.041
  430ACOH    H312340   5.948   0.269   7.049
  431ACOH    H412341   6.925   1.526   5.651
  431ACOH    O212342   6.982   1.537   5.732
  431ACOH    C212343   6.900   1.568   5.834
  431ACOH    O112344   6.786   1.610   5.825
  431ACOH    C112345   6.969   1.560   5.965
  431ACOH    H112346   7.069   1.520   5.952
  431ACOH    H212347   6.914   1.495   6.032
  431ACOH    H312348   6.976   1.659   6.009
  432ACOH    H412349   6.854   1.116   7.620
  432ACOH    O212350   6.889   1.205   7.650
  432ACOH    C212351   6.971   1.248   7.553
  432ACOH    O112352   6.957   1.225   7.434
  432ACOH    C112353   7.057   1.358   7.602
  432ACOH    H112354   7.158   1.345   7.564
  432ACOH    H212355   7.061   1.358   7.711
  432ACOH    H312356   7.018   1.454   7.569
  433ACOH    H412357   6.308   0.216   8.988
  433ACOH    O212358   6.242   0.287   8.960
  433ACOH    C212359   6.250   0.298   8.827
  433ACOH    O112360   6.324   0.238   8.752
  433ACOH    C112361   6.153   0.400   8.779
  433ACOH    H112362   6.160   0.412   8.671
  433ACOH    H212363   6.175   0.495   8.827
  433ACOH    H312364   6.052   0.370   8.806
  434ACOH    H412365   7.132   2.846   1.698
  434ACOH    O212366   7.143   2.798   1.785
  434ACOH    C212367   7.035   2.718   1.797
  434ACOH    O112368   6.934   2.721   1.729
  434ACOH    C112369   7.049   2.629   1.914
  434ACOH    H112370   7.046   2.688   2.005
  434ACOH    H212371   7.144   2.576   1.909
  434ACOH    H312372   6.969   2.556   1.917
  435ACOH    H412373   6.292   2.034   1.657
  435ACOH    O212374   6.261   2.118   1.612
  435ACOH    C212375   6.186   2.080   1.507
  435ACOH    O112376   6.148   1.968   1.479
  435ACOH    C112377   6.147   2.200   1.429
  435ACOH    H112378   6.089   2.172   1.341
  435ACOH    H212379   6.236   2.253   1.397
  435ACOH    H312380   6.087   2.266   1.492
  436ACOH    H412381   6.857   2.977   1.999
  436ACOH    O212382   6.896   3.063   2.029
  436ACOH    C212383   6.986   3.103   1.937
  436ACOH    O112384   6.986   3.072   1.819
  436ACOH    C112385   7.068   3.215   1.988
  436ACOH    H112386   7.173   3.198   1.962
  436ACOH    H212387   7.061   3.223   2.096
  436ACOH    H312388   7.036   3.309   1.943
  437ACOH    H412389   7.141   2.873   3.549
  437ACOH    O212390   7.152   2.820   3.633
  437ACOH    C212391   7.044   2.739   3.641
  437ACOH    O112392   6.950   2.736   3.564
  437ACOH    C112393   7.055   2.650   3.759
  437ACOH    H112394   7.050   2.710   3.849
  437ACOH    H212395   7.149   2.596   3.757
  437ACOH    H312396   6.974   2.578   3.760
  438ACOH    H412397   6.244   2.014   3.503
  438ACOH    O212398   6.215   2.097   3.455
  438ACOH    C212399   6.230   2.072   3.323
  438ACOH    O112400   6.263   1.966   3.272
  438ACOH    C112401   6.198   2.193   3.245
  438ACOH    H112402   6.208   2.174   3.138
  438ACOH    H212403   6.265   2.274   3.272
  438ACOH    H312404   6.096   2.224   3.265
  439ACOH    H412405   6.794   3.460   1.967
  439ACOH    O212406   6.867   3.480   2.032
  439ACOH    C212407   6.821   3.452   2.155
  439ACOH    O112408   6.705   3.464   2.190
  439ACOH    C112409   6.931   3.448   2.254
  439ACOH    H112410   7.027   3.435   2.203
  439ACOH    H212411   6.917   3.366   2.323
  439ACOH    H312412   6.935   3.542   2.309
  440ACOH    H412413   6.853   2.972   3.854
  440ACOH    O212414   6.896   3.053   3.893
  440ACOH    C212415   6.980   3.104   3.801
  440ACOH    O112416   6.986   3.075   3.683
  440ACOH    C112417   7.059   3.216   3.857
  440ACOH    H112418   7.165   3.198   3.838
  440ACOH    H212419   7.045   3.224   3.964
  440ACOH    H312420   7.030   3.309   3.810
  441ACOH    H412421   7.140   2.861   5.385
  441ACOH    O212422   7.153   2.812   5.470
  441ACOH    C212423   7.046   2.730   5.481
  441ACOH    O112424   6.947   2.730   5.410
  441ACOH    C112425   7.061   2.639   5.597
  441ACOH    H112426   7.053   2.696   5.689
  441ACOH    H212427   7.158   2.591   5.594
  441ACOH    H312428   6.983   2.563   5.596
  442ACOH    H412429   6.287   2.029   5.309
  442ACOH    O212430   6.272   2.124   5.281
  442ACOH    C212431   6.224   2.122   5.155
  442ACOH    O112432   6.174   2.027   5.097
  442ACOH    C112433   6.218   2.260   5.101
  442ACOH    H112434   6.174   2.261   5.001
  442ACOH    H212435   6.318   2.301   5.096
  442ACOH    H312436   6.157   2.322   5.166
  443ACOH    H412437   6.800   3.468   3.827
  443ACOH    O212438   6.867   3.490   3.897
  443ACOH    C212439   6.814   3.448   4.014
  443ACOH    O112440   6.695   3.439   4.038
  443ACOH    C112441   6.915   3.449   4.123
  443ACOH    H112442   7.016   3.453   4.082
  443ACOH    H212443   6.905   3.358   4.182
  443ACOH    H312444   6.899   3.535   4.187
  444ACOH    H412445   6.858   2.970   5.695
  444ACOH    O212446   6.900   3.052   5.733
  444ACOH    C212447   6.985   3.102   5.642
  444ACOH    O112448   6.988   3.075   5.523
  444ACOH    C112449   7.065   3.214   5.698
  444ACOH    H112450   7.170   3.195   5.678
  444ACOH    H212451   7.050   3.222   5.805
  444ACOH    H312452   7.036   3.307   5.651
  445ACOH    H412453   7.134   2.860   7.237
  445ACOH    O212454   7.141   2.818   7.327
  445ACOH    C212455   7.027   2.749   7.343
  445ACOH    O112456   6.933   2.742   7.266
  445ACOH    C112457   7.027   2.680   7.473
  445ACOH    H112458   6.997   2.750   7.551
  445ACOH    H212459   7.126   2.643   7.495
  445ACOH    H312460   6.958   2.596   7.473
  446ACOH    H412461   6.205   2.094   7.307
  446ACOH    O212462   6.171   2.151   7.233
  446ACOH    C212463   6.241   2.117   7.123
  446ACOH    O112464   6.310   2.018   7.108
  446ACOH    C112465   6.210   2.207   7.009
  446ACOH    H112466   6.154   2.153   6.933
  446ACOH    H212467   6.303   2.244   6.965
  446ACOH    H312468   6.151   2.293   7.042
  447ACOH    H412469   6.805   3.462   5.652
  447ACOH    O212470   6.870   3.485   5.724
  447ACOH    C212471   6.809   3.457   5.841
  447ACOH    O112472   6.689   3.455   5.860
  447ACOH    C112473   6.905   3.463   5.954
  447ACOH    H112474   7.007   3.464   5.919
  447ACOH    H212475   6.891   3.376   6.019
  447ACOH    H312476   6.887   3.553   6.013
  448ACOH    H412477   6.836   2.980   7.549
  448ACOH    O212478   6.888   3.055   7.590
  448ACOH    C212479   6.972   3.104   7.497
  448ACOH    O112480   6.972   3.080   7.378
  448ACOH    C112481   7.064   3.204   7.556
  448ACOH    H112482   7.167   3.174   7.538
  448ACOH    H212483   7.050   3.213   7.663
  448ACOH    H312484   7.048   3.301   7.510
  449ACOH    H412485   7.126   2.862   9.062
  449ACOH    O212486   7.133   2.810   9.147
  449ACOH    C212487   7.024   2.731   9.150
  449ACOH    O112488   6.931   2.731   9.071
  449ACOH    C112489   7.028   2.643   9.269
  449ACOH    H112490   7.024   2.703   9.359
  449ACOH    H212491   7.121   2.585   9.269
  449ACOH    H312492   6.944   2.574   9.269
  450ACOH    H412493   6.270   1.987   8.997
  450ACOH    O212494   6.243   2.077   8.965
  450ACOH    C212495   6.225   2.070   8.832
  450ACOH    O112496   6.231   1.969   8.764
  450ACOH    C112497   6.188   2.202   8.777
  450ACOH    H112498   6.171   2.197   8.670
  450ACOH    H212499   6.268   2.274   8.796
  450ACOH    H312500   6.098   2.238   8.825
  451ACOH    H412501   6.839   3.452   7.488
  451ACOH    O212502   6.890   3.483   7.569
  451ACOH    C212503   6.822   3.438   7.675
  451ACOH    O112504   6.701   3.420   7.679
  451ACOH    C112505   6.902   3.451   7.799
  451ACOH    H112506   7.008   3.460   7.776
  451ACOH    H212507   6.888   3.363   7.861
  451ACOH    H312508   6.870   3.539   7.855
  452ACOH    H412509   6.846   2.934   9.436
  452ACOH    O212510   6.895   3.006   9.485
  452ACOH    C212511   6.963   3.076   9.391
  452ACOH    O112512   6.962   3.057   9.271
  452ACOH    C112513   7.042   3.185   9.453
  452ACOH    H112514   7.147   3.170   9.431
  452ACOH    H212515   7.028   3.188   9.560
  452ACOH    H312516   7.011   3.281   9.410
  453ACOH    H412517   6.778   3.471   9.336
  453ACOH    O212518   6.843   3.492   9.409
  453ACOH    C212519   6.784   3.458   9.526
  453ACOH    O112520   6.663   3.454   9.545
  453ACOH    C112521   6.881   3.463   9.637
  453ACOH    H112522   6.983   3.467   9.600
  453ACOH    H212523   6.870   3.374   9.698
  453ACOH    H312524   6.863   3.550   9.699
  454ACOH    H412525   6.726   4.800   0.279
  454ACOH    O212526   6.797   4.855   0.322
  454ACOH    C212527   6.818   4.959   0.238
  454ACOH    O112528   6.748   4.993   0.144
  454ACOH    C112529   6.934   5.039   0.283
  454ACOH    H112530   7.024   4.977   0.280
  454ACOH    H212531   6.918   5.072   0.385
  454ACOH    H312532   6.948   5.125   0.219
  455ACOH    H412533   6.294   3.865   1.628
  455ACOH    O212534   6.265   3.947   1.578
  455ACOH    C212535   6.257   3.910   1.449
  455ACOH    O112536   6.276   3.799   1.402
  455ACOH    C112537   6.219   4.026   1.365
  455ACOH    H112538   6.217   3.999   1.260
  455ACOH    H212539   6.290   4.107   1.379
  455ACOH    H312540   6.120   4.061   1.394
  456ACOH    H412541   7.140   4.778   3.549
  456ACOH    O212542   7.137   4.715   3.626
  456ACOH    C212543   7.047   4.619   3.596
  456ACOH    O112544   6.977   4.614   3.497
  456ACOH    C112545   7.041   4.517   3.702
  456ACOH    H112546   7.003   4.562   3.794
  456ACOH    H212547   7.140   4.477   3.721
  456ACOH    H312548   6.975   4.435   3.673
  457ACOH    H412549   6.224   3.883   3.510
  457ACOH    O212550   6.203   3.970   3.463
  457ACOH    C212551   6.218   3.944   3.332
  457ACOH    O112552   6.257   3.840   3.282
  457ACOH    C112553   6.185   4.065   3.252
  457ACOH    H112554   6.200   4.046   3.146
  457ACOH    H212555   6.249   4.147   3.282
  457ACOH    H312556   6.082   4.092   3.269
  458ACOH    H412557   6.840   4.832   3.854
  458ACOH    O212558   6.894   4.899   3.904
  458ACOH    C212559   6.971   4.964   3.815
  458ACOH    O112560   6.956   4.967   3.695
  458ACOH    C112561   7.073   5.048   3.883
  458ACOH    H112562   7.172   5.017   3.851
  458ACOH    H212563   7.066   5.038   3.991
  458ACOH    H312564   7.059   5.152   3.856
  459ACOH    H412565   7.072   4.682   5.482
  459ACOH    O212566   7.070   4.629   5.567
  459ACOH    C212567   6.973   4.538   5.550
  459ACOH    O112568   6.871   4.556   5.486
  459ACOH    C112569   6.986   4.431   5.652
  459ACOH    H112570   6.972   4.473   5.751
  459ACOH    H212571   7.084   4.386   5.645
  459ACOH    H312572   6.911   4.353   5.636
  460ACOH    H412573   6.221   3.850   5.319
  460ACOH    O212574   6.183   3.928   5.267
  460ACOH    C212575   6.218   3.908   5.138
  460ACOH    O112576   6.273   3.809   5.092
  460ACOH    C112577   6.172   4.020   5.054
  460ACOH    H112578   6.196   4.003   4.949
  460ACOH    H212579   6.220   4.112   5.086
  460ACOH    H312580   6.064   4.032   5.064
  461ACOH    H412581   6.801   5.286   3.809
  461ACOH    O212582   6.867   5.301   3.883
  461ACOH    C212583   6.801   5.283   3.999
  461ACOH    O112584   6.681   5.280   4.013
  461ACOH    C112585   6.894   5.285   4.114
  461ACOH    H112586   6.997   5.290   4.082
  461ACOH    H212587   6.880   5.195   4.174
  461ACOH    H312588   6.872   5.372   4.176
  462ACOH    H412589   6.862   4.824   5.746
  462ACOH    O212590   6.930   4.887   5.783
  462ACOH    C212591   6.974   4.964   5.681
  462ACOH    O112592   6.948   4.952   5.563
  462ACOH    C112593   7.073   5.064   5.729
  462ACOH    H112594   7.170   5.044   5.684
  462ACOH    H212595   7.082   5.063   5.837
  462ACOH    H312596   7.041   5.164   5.698
  463ACOH    H412597   6.282   3.853   7.248
  463ACOH    O212598   6.262   3.943   7.209
  463ACOH    C212599   6.257   3.927   7.076
  463ACOH    O112600   6.282   3.825   7.014
  463ACOH    C112601   6.219   4.054   7.010
  463ACOH    H112602   6.217   4.043   6.902
  463ACOH    H212603   6.290   4.132   7.036
  463ACOH    H312604   6.120   4.084   7.044
  464ACOH    H412605   6.803   5.383   5.645
  464ACOH    O212606   6.867   5.380   5.718
  464ACOH    C212607   6.801   5.324   5.823
  464ACOH    O112608   6.683   5.297   5.825
  464ACOH    C112609   6.889   5.308   5.941
  464ACOH    H112610   6.992   5.331   5.917
  464ACOH    H212611   6.883   5.205   5.978
  464ACOH    H312612   6.855   5.374   6.020
  465ACOH    H412613   6.870   4.799   7.549
  465ACOH    O212614   6.906   4.881   7.594
  465ACOH    C212615   6.996   4.936   7.510
  465ACOH    O112616   7.020   4.901   7.396
  465ACOH    C112617   7.065   5.052   7.572
  465ACOH    H112618   7.172   5.035   7.571
  465ACOH    H212619   7.033   5.066   7.675
  465ACOH    H312620   7.043   5.142   7.516
  466ACOH    H412621   7.133   4.686   9.079
  466ACOH    O212622   7.138   4.640   9.168
  466ACOH    C212623   7.035   4.554   9.172
  466ACOH    O112624   6.948   4.538   9.088
  466ACOH    C112625   7.038   4.475   9.297
  466ACOH    H112626   7.017   4.541   9.381
  466ACOH    H212627   7.137   4.431   9.311
  466ACOH    H312628   6.964   4.396   9.295
  467ACOH    H412629   6.278   3.877   9.006
  467ACOH    O212630   6.256   3.962   8.958
  467ACOH    C212631   6.238   3.929   8.829
  467ACOH    O112632   6.261   3.820   8.777
  467ACOH    C112633   6.197   4.048   8.751
  467ACOH    H112634   6.193   4.025   8.645
  467ACOH    H212635   6.268   4.129   8.767
  467ACOH    H312636   6.099   4.080   8.784
  468ACOH    H412637   6.803   5.315   7.497
  468ACOH    O212638   6.866   5.337   7.572
  468ACOH    C212639   6.807   5.295   7.685
  468ACOH    O112640   6.688   5.280   7.701
  468ACOH    C112641   6.900   5.306   7.801
  468ACOH    H112642   7.003   5.313   7.767
  468ACOH    H212643   6.890   5.218   7.864
  468ACOH    H312644   6.876   5.394   7.859
  469ACOH    H412645   6.882   4.802   9.435
  469ACOH    O212646   6.949   4.871   9.461
  469ACOH    C212647   6.999   4.921   9.346
  469ACOH    O112648   6.948   4.915   9.235
  469ACOH    C112649   7.116   5.009   9.371
  469ACOH    H112650   7.198   4.979   9.306
  469ACOH    H212651   7.149   5.002   9.474
  469ACOH    H312652   7.090   5.112   9.349
  470ACOH    H412653   6.794   5.234   9.271
  470ACOH    O212654   6.863   5.239   9.344
  470ACOH    C212655   6.808   5.183   9.454
  470ACOH    O112656   6.695   5.141   9.465
  470ACOH    C112657   6.904   5.180   9.567
  470ACOH    H112658   6.996   5.231   9.542
  470ACOH    H212659   6.926   5.077   9.593
  470ACOH    H312660   6.860   5.228   9.654
  471ACOH    H412661   6.736   6.619   0.258
  471ACOH    O212662   6.770   6.714   0.257
  471ACOH    C212663   6.859   6.723   0.156
  471ACOH    O112664   6.895   6.632   0.083
  471ACOH    C112665   6.910   6.861   0.142
  471ACOH    H112666   7.018   6.862   0.152
  471ACOH    H212667   6.867   6.927   0.218
  471ACOH    H312668   6.884   6.900   0.044
  472ACOH    H412669   7.131   6.534   1.709
  472ACOH    O212670   7.147   6.486   1.796
  472ACOH    C212671   7.038   6.408   1.814
  472ACOH    O112672   6.938   6.403   1.744
  472ACOH    C112673   7.052   6.327   1.937
  472ACOH    H112674   7.052   6.392   2.023
  472ACOH    H212675   7.146   6.272   1.933
  472ACOH    H312676   6.970   6.256   1.946
  473ACOH    H412677   6.248   5.720   1.630
  473ACOH    O212678   6.225   5.806   1.584
  473ACOH    C212679   6.236   5.782   1.452
  473ACOH    O112680   6.264   5.676   1.399
  473ACOH    C112681   6.208   5.906   1.375
  473ACOH    H112682   6.218   5.888   1.269
  473ACOH    H212683   6.277   5.984   1.406
  473ACOH    H312684   6.106   5.938   1.396
  474ACOH    H412685   6.841   6.664   2.011
  474ACOH    O212686   6.879   6.751   2.041
  474ACOH    C212687   6.968   6.791   1.948
  474ACOH    O112688   6.981   6.747   1.835
  474ACOH    C112689   7.042   6.911   1.993
  474ACOH    H112690   7.149   6.893   1.983
  474ACOH    H212691   7.021   6.933   2.098
  474ACOH    H312692   7.014   6.997   1.933
  475ACOH    H412693   7.135   6.588   3.531
  475ACOH    O212694   7.158   6.545   3.618
  475ACOH    C212695   7.057   6.461   3.647
  475ACOH    O112696   6.954   6.448   3.584
  475ACOH    C112697   7.084   6.390   3.773
  475ACOH    H112698   7.100   6.462   3.852
  475ACOH    H212699   7.174   6.329   3.763
  475ACOH    H312700   7.001   6.325   3.800
  476ACOH    H412701   6.278   5.736   3.518
  476ACOH    O212702   6.247   5.820   3.473
  476ACOH    C212703   6.242   5.794   3.341
  476ACOH    O112704   6.275   5.691   3.286
  476ACOH    C112705   6.193   5.913   3.268
  476ACOH    H112706   6.193   5.896   3.161
  476ACOH    H212707   6.256   5.999   3.290
  476ACOH    H312708   6.091   5.936   3.299
  477ACOH    H412709   6.786   7.151   1.949
  477ACOH    O212710   6.844   7.194   2.017
  477ACOH    C212711   6.814   7.138   2.135
  477ACOH    O112712   6.714   7.074   2.162
  477ACOH    C112713   6.908   7.183   2.241
  477ACOH    H112714   6.996   7.228   2.197
  477ACOH    H212715   6.938   7.097   2.301
  477ACOH    H312716   6.858   7.256   2.304
  478ACOH    H412717   7.139   6.544   5.382
  478ACOH    O212718   7.153   6.499   5.469
  478ACOH    C212719   7.048   6.414   5.483
  478ACOH    O112720   6.948   6.412   5.414
  478ACOH    C112721   7.066   6.327   5.602
  478ACOH    H112722   7.066   6.387   5.692
  478ACOH    H212723   7.161   6.274   5.595
  478ACOH    H312724   6.986   6.254   5.608
  479ACOH    H412725   6.277   5.737   5.318
  479ACOH    O212726   6.244   5.826   5.283
  479ACOH    C212727   6.194   5.801   5.161
  479ACOH    O112728   6.173   5.692   5.112
  479ACOH    C112729   6.158   5.929   5.094
  479ACOH    H112730   6.124   5.910   4.993
  479ACOH    H212731   6.244   5.994   5.092
  479ACOH    H312732   6.078   5.977   5.150
  480ACOH    H412733   6.863   7.088   3.827
  480ACOH    O212734   6.924   7.079   3.906
  480ACOH    C212735   6.845   7.084   4.016
  480ACOH    O112736   6.728   7.119   4.019
  480ACOH    C112737   6.923   7.059   4.139
  480ACOH    H112738   7.022   7.022   4.116
  480ACOH    H212739   6.872   6.986   4.201
  480ACOH    H312740   6.933   7.152   4.195
  481ACOH    H412741   6.851   6.654   5.695
  481ACOH    O212742   6.886   6.738   5.735
  481ACOH    C212743   6.974   6.793   5.649
  481ACOH    O112744   6.987   6.766   5.531
  481ACOH    C112745   7.043   6.910   5.710
  481ACOH    H112746   7.150   6.900   5.694
  481ACOH    H212747   7.025   6.914   5.817
  481ACOH    H312748   7.008   7.001   5.664
  482ACOH    H412749   7.100   6.621   7.294
  482ACOH    O212750   7.102   6.570   7.380
  482ACOH    C212751   7.036   6.455   7.355
  482ACOH    O112752   6.974   6.427   7.254
  482ACOH    C112753   7.046   6.362   7.470
  482ACOH    H112754   7.004   6.409   7.558
  482ACOH    H212755   7.150   6.337   7.489
  482ACOH    H312756   6.991   6.270   7.450
  483ACOH    H412757   6.287   5.724   7.178
  483ACOH    O212758   6.261   5.809   7.132
  483ACOH    C212759   6.262   5.780   7.000
  483ACOH    O112760   6.301   5.677   6.947
  483ACOH    C112761   6.215   5.898   6.923
  483ACOH    H112762   6.219   5.878   6.816
  483ACOH    H212763   6.276   5.984   6.946
  483ACOH    H312764   6.112   5.919   6.950
  484ACOH    H412765   6.777   7.169   5.667
  484ACOH    O212766   6.838   7.192   5.743
  484ACOH    C212767   6.780   7.145   5.855
  484ACOH    O112768   6.660   7.129   5.870
  484ACOH    C112769   6.874   7.147   5.969
  484ACOH    H112770   6.977   7.155   5.935
  484ACOH    H212771   6.864   7.055   6.026
  484ACOH    H312772   6.852   7.232   6.033
  485ACOH    H412773   6.858   6.646   7.550
  485ACOH    O212774   6.923   6.713   7.585
  485ACOH    C212775   6.949   6.802   7.488
  485ACOH    O112776   6.907   6.802   7.374
  485ACOH    C112777   7.046   6.905   7.534
  485ACOH    H112778   7.140   6.892   7.481
  485ACOH    H212779   7.064   6.897   7.641
  485ACOH    H312780   7.008   7.004   7.512
  486ACOH    H412781   6.104   5.716   8.982
  486ACOH    O212782   6.123   5.798   8.935
  486ACOH    C212783   6.197   5.765   8.827
  486ACOH    O112784   6.247   5.655   8.807
  486ACOH    C112785   6.225   5.882   8.741
  486ACOH    H112786   6.201   5.858   8.638
  486ACOH    H212787   6.330   5.908   8.747
  486ACOH    H312788   6.165   5.967   8.772
  487ACOH    H412789   6.783   7.167   7.501
  487ACOH    O212790   6.844   7.191   7.577
  487ACOH    C212791   6.786   7.146   7.690
  487ACOH    O112792   6.666   7.132   7.706
  487ACOH    C112793   6.880   7.153   7.804
  487ACOH    H112794   6.983   7.157   7.769
  487ACOH    H212795   6.868   7.065   7.867
  487ACOH    H312796   6.859   7.241   7.863
  488ACOH    H412797   6.815   6.690   9.459
  488ACOH    O212798   6.870   6.770   9.485
  488ACOH    C212799   6.925   6.817   9.371
  488ACOH    O112800   6.880   6.800   9.259
  488ACOH    C112801   7.031   6.916   9.400
  488ACOH    H112802   7.120   6.891   9.343
  488ACOH    H212803   7.056   6.917   9.505
  488ACOH    H312804   6.998   7.015   9.370
  489ACOH    H412805   6.778   7.192   9.356
  489ACOH    O212806   6.841   7.215   9.430
  489ACOH    C212807   6.794   7.153   9.540
  489ACOH    O112808   6.681   7.110   9.555
  489ACOH    C112809   6.889   7.164   9.654
  489ACOH    H112810   6.987   7.195   9.619
  489ACOH    H212811   6.898   7.068   9.703
  489ACOH    H312812   6.851   7.237   9.725
  490ACOH    H412813   6.841   8.455   0.228
  490ACOH    O212814   6.882   8.532   0.276
  490ACOH    C212815   6.932   8.614   0.182
  490ACOH    O112816   6.896   8.620   0.066
  490ACOH    C112817   7.020   8.716   0.243
  490ACOH    H112818   7.111   8.669   0.278
  490ACOH    H212819   6.970   8.762   0.329
  490ACOH    H312820   7.045   8.794   0.172
  491ACOH    H412821   7.109   8.348   1.690
  491ACOH    O212822   7.131   8.305   1.776
  491ACOH    C212823   7.028   8.223   1.805
  491ACOH    O112824   6.917   8.224   1.754
  491ACOH    C112825   7.063   8.132   1.916
  491ACOH    H112826   7.078   8.190   2.007
  491ACOH    H212827   7.155   8.080   1.892
  491ACOH    H312828   6.985   8.059   1.933
  492ACOH    H412829   6.240   7.547   1.653
  492ACOH    O212830   6.219   7.641   1.625
  492ACOH    C212831   6.212   7.636   1.490
  492ACOH    O112832   6.173   7.542   1.423
  492ACOH    C112833   6.231   7.772   1.435
  492ACOH    H112834   6.223   7.772   1.327
  492ACOH    H212835   6.330   7.809   1.463
  492ACOH    H312836   6.155   7.838   1.476
  493ACOH    H412837   6.776   8.919   0.115
  493ACOH    O212838   6.834   8.963   0.182
  493ACOH    C212839   6.762   8.976   0.295
  493ACOH    O112840   6.641   8.970   0.302
  493ACOH    C112841   6.845   9.021   0.409
  493ACOH    H112842   6.951   9.019   0.383
  493ACOH    H212843   6.828   8.956   0.494
  493ACOH    H312844   6.818   9.123   0.436
  494ACOH    H412845   6.865   8.514   2.016
  494ACOH    O212846   6.909   8.596   2.051
  494ACOH    C212847   6.997   8.637   1.958
  494ACOH    O112848   6.987   8.618   1.838
  494ACOH    C112849   7.086   8.742   2.013
  494ACOH    H112850   7.187   8.726   1.976
  494ACOH    H212851   7.088   8.737   2.121
  494ACOH    H312852   7.052   8.840   1.982
  495ACOH    H412853   7.115   8.408   3.595
  495ACOH    O212854   7.120   8.356   3.679
  495ACOH    C212855   7.023   8.263   3.668
  495ACOH    O112856   6.928   8.266   3.592
  495ACOH    C112857   7.039   8.158   3.772
  495ACOH    H112858   7.032   8.204   3.870
  495ACOH    H212859   7.137   8.112   3.762
  495ACOH    H312860   6.962   8.082   3.762
  496ACOH    H412861   6.343   7.515   3.463
  496ACOH    O212862   6.313   7.608   3.443
  496ACOH    C212863   6.253   7.602   3.322
  496ACOH    O112864   6.226   7.501   3.260
  496ACOH    C112865   6.212   7.737   3.276
  496ACOH    H112866   6.163   7.731   3.179
  496ACOH    H212867   6.299   7.801   3.268
  496ACOH    H312868   6.142   7.780   3.348
  497ACOH    H412869   6.815   9.010   1.961
  497ACOH    O212870   6.879   9.037   2.033
  497ACOH    C212871   6.831   8.983   2.146
  497ACOH    O112872   6.713   8.961   2.169
  497ACOH    C112873   6.930   8.992   2.256
  497ACOH    H112874   7.031   9.005   2.217
  497ACOH    H212875   6.928   8.900   2.315
  497ACOH    H312876   6.906   9.076   2.321
  498ACOH    H412877   6.867   8.507   3.866
  498ACOH    O212878   6.924   8.578   3.909
  498ACOH    C212879   6.991   8.642   3.812
  498ACOH    O112880   6.974   8.632   3.691
  498ACOH    C112881   7.084   8.742   3.869
  498ACOH    H112882   7.185   8.723   3.832
  498ACOH    H212883   7.086   8.736   3.977
  498ACOH    H312884   7.054   8.842   3.839
  499ACOH    H412885   7.127   8.380   5.403
  499ACOH    O212886   7.140   8.333   5.490
  499ACOH    C212887   7.032   8.252   5.503
  499ACOH    O112888   6.934   8.250   5.432
  499ACOH    C112889   7.046   8.166   5.623
  499ACOH    H112890   7.043   8.228   5.712
  499ACOH    H212891   7.141   8.113   5.620
  499ACOH    H312892   6.965   8.094   5.628
  500ACOH    H412893   6.259   7.528   5.301
  500ACOH    O212894   6.235   7.613   5.253
  500ACOH    C212895   6.259   7.593   5.123
  500ACOH    O112896   6.291   7.488   5.070
  500ACOH    C112897   6.235   7.717   5.046
  500ACOH    H112898   6.248   7.700   4.939
  500ACOH    H212899   6.304   7.794   5.078
  500ACOH    H312900   6.134   7.752   5.064
  501ACOH    H412901   6.807   9.011   3.804
  501ACOH    O212902   6.872   9.035   3.876
  501ACOH    C212903   6.822   8.986   3.991
  501ACOH    O112904   6.703   8.970   4.013
  501ACOH    C112905   6.921   8.991   4.100
  501ACOH    H112906   7.022   9.002   4.061
  501ACOH    H212907   6.916   8.899   4.158
  501ACOH    H312908   6.900   9.075   4.166
  502ACOH    H412909   6.857   8.514   5.716
  502ACOH    O212910   6.899   8.597   5.752
  502ACOH    C212911   6.987   8.641   5.661
  502ACOH    O112912   6.990   8.612   5.543
  502ACOH    C112913   7.071   8.751   5.715
  502ACOH    H112914   7.176   8.729   5.696
  502ACOH    H212915   7.057   8.761   5.823
  502ACOH    H312916   7.045   8.845   5.668
  503ACOH    H412917   6.281   7.566   7.184
  503ACOH    O212918   6.255   7.651   7.137
  503ACOH    C212919   6.247   7.622   7.006
  503ACOH    O112920   6.282   7.518   6.952
  503ACOH    C112921   6.199   7.740   6.930
  503ACOH    H112922   6.199   7.720   6.823
  503ACOH    H212923   6.264   7.825   6.949
  503ACOH    H312924   6.098   7.765   6.961
  504ACOH    H412925   6.796   8.989   5.665
  504ACOH    O212926   6.861   9.001   5.740
  504ACOH    C212927   6.793   8.985   5.854
  504ACOH    O112928   6.671   8.985   5.867
  504ACOH    C112929   6.883   8.985   5.971
  504ACOH    H112930   6.987   8.986   5.940
  504ACOH    H212931   6.866   8.896   6.031
  504ACOH    H312932   6.864   9.073   6.033
  505ACOH    H412933   6.863   8.475   7.531
  505ACOH    O212934   6.887   8.565   7.566
  505ACOH    C212935   6.972   8.622   7.479
  505ACOH    O112936   7.006   8.581   7.369
  505ACOH    C112937   7.024   8.750   7.533
  505ACOH    H112938   7.133   8.747   7.535
  505ACOH    H212939   6.989   8.767   7.635
  505ACOH    H312940   6.992   8.833   7.471
  506ACOH    H412941   7.141   8.409   9.084
  506ACOH    O212942   7.146   8.359   9.170
  506ACOH    C212943   7.038   8.278   9.171
  506ACOH    O112944   6.942   8.284   9.096
  506ACOH    C112945   7.043   8.185   9.287
  506ACOH    H112946   7.034   8.241   9.379
  506ACOH    H212947   7.137   8.131   9.287
  506ACOH    H312948   6.962   8.113   9.281
  507ACOH    H412949   6.215   7.557   9.028
  507ACOH    O212950   6.174   7.635   8.980
  507ACOH    C212951   6.204   7.618   8.850
  507ACOH    O112952   6.252   7.519   8.797
  507ACOH    C112953   6.162   7.738   8.774
  507ACOH    H112954   6.183   7.725   8.668
  507ACOH    H212955   6.215   7.825   8.810
  507ACOH    H312956   6.055   7.753   8.786
  508ACOH    H412957   6.808   9.022   7.497
  508ACOH    O212958   6.872   9.045   7.570
  508ACOH    C212959   6.821   8.991   7.683
  508ACOH    O112960   6.703   8.967   7.702
  508ACOH    C112961   6.918   8.995   7.794
  508ACOH    H112962   7.019   9.011   7.757
  508ACOH    H212963   6.916   8.901   7.848
  508ACOH    H312964   6.893   9.075   7.863
  509ACOH    H412965   6.859   8.512   9.421
  509ACOH    O212966   6.905   8.587   9.469
  509ACOH    C212967   6.982   8.651   9.378
  509ACOH    O112968   6.982   8.634   9.258
  509ACOH    C112969   7.063   8.757   9.442
  509ACOH    H112970   7.168   8.740   9.420
  509ACOH    H212971   7.050   8.758   9.550
  509ACOH    H312972   7.035   8.855   9.402
  510ACOH    H412973   6.784   9.011   9.345
  510ACOH    O212974   6.851   9.038   9.413
  510ACOH    C212975   6.806   8.991   9.531
  510ACOH    O112976   6.693   8.952   9.555
  510ACOH    C112977   6.905   9.011   9.640
  510ACOH    H112978   7.003   9.034   9.599
  510ACOH    H212979   6.913   8.920   9.700
  510ACOH    H312980   6.874   9.093   9.703
  511ACOH    H412981   6.289   9.395   1.642
  511ACOH    O212982   6.262   9.479   1.593
  511ACOH    C212983   6.256   9.445   1.463
  511ACOH    O112984   6.279   9.335   1.415
  511ACOH    C112985   6.217   9.561   1.381
  511ACOH    H112986   6.210   9.534   1.276
  511ACOH    H212987   6.290   9.641   1.392
  511ACOH    H312988   6.120   9.597   1.414
  512ACOH    H412989   6.251   9.414   3.478
  512ACOH    O212990   6.223   9.497   3.429
  512ACOH    C212991   6.236   9.467   3.298
  512ACOH    O112992   6.270   9.360   3.251
  512ACOH    C112993   6.202   9.585   3.216
  512ACOH    H112994   6.212   9.562   3.110
  512ACOH    H212995   6.269   9.668   3.240
  512ACOH    H312996   6.100   9.615   3.236
  513ACOH    H412997   6.279   9.408   7.184
  513ACOH    O212998   6.255   9.492   7.135
  513ACOH    C212999   6.262   9.462   7.004
  513ACOH    O113000   6.291   9.354   6.955
  513ACOH    C113001   6.228   9.581   6.923
  513ACOH    H113002   6.235   9.559   6.817
  513ACOH    H213003   6.296   9.662   6.947
  513ACOH    H313004   6.126   9.612   6.945
  514ACOH    H413005   6.267   9.412   8.996
  514ACOH    O213006   6.244   9.496   8.947
  514ACOH    C213007   6.244   9.463   8.816
  514ACOH    O113008   6.272   9.355   8.767
  514ACOH    C113009   6.209   9.582   8.734
  514ACOH    H113010   6.215   9.558   8.628
  514ACOH    H213011   6.277   9.663   8.756
  514ACOH    H313012   6.108   9.613   8.757
  515ACOH    H413013   8.692   1.170   0.224
  515ACOH    O213014   8.768   1.218   0.269
  515ACOH    C213015   8.812   1.309   0.180
  515ACOH    O113016   8.756   1.340   0.076
  515ACOH    C113017   8.928   1.382   0.234
  515ACOH    H113018   9.013   1.315   0.241
  515ACOH    H213019   8.906   1.420   0.333
  515ACOH    H313020   8.955   1.465   0.169
  516ACOH    H413021   8.966   0.985   1.702
  516ACOH    O213022   8.986   0.923   1.777
  516ACOH    C213023   8.869   0.894   1.836
  516ACOH    O113024   8.758   0.932   1.802
  516ACOH    C113025   8.887   0.803   1.952
  516ACOH    H113026   8.855   0.853   2.043
  516ACOH    H213027   8.991   0.773   1.963
  516ACOH    H313028   8.826   0.714   1.938
  517ACOH    H413029   8.598   1.601   0.122
  517ACOH    O213030   8.658   1.648   0.186
  517ACOH    C213031   8.635   1.591   0.306
  517ACOH    O113032   8.542   1.519   0.335
  517ACOH    C113033   8.728   1.643   0.409
  517ACOH    H113034   8.814   1.691   0.364
  517ACOH    H213035   8.762   1.562   0.473
  517ACOH    H313036   8.676   1.716   0.471
  518ACOH    H413037   8.117   0.228   3.489
  518ACOH    O213038   8.075   0.311   3.452
  518ACOH    C213039   8.063   0.293   3.319
  518ACOH    O113040   8.082   0.188   3.259
  518ACOH    C113041   8.013   0.416   3.253
  518ACOH    H113042   7.997   0.398   3.147
  518ACOH    H213043   8.087   0.494   3.265
  518ACOH    H313044   7.920   0.447   3.299
  519ACOH    H413045   8.697   1.110   3.821
  519ACOH    O213046   8.741   1.189   3.865
  519ACOH    C213047   8.803   1.260   3.769
  519ACOH    O113048   8.778   1.260   3.650
  519ACOH    C113049   8.893   1.362   3.829
  519ACOH    H113050   8.991   1.355   3.783
  519ACOH    H213051   8.904   1.346   3.936
  519ACOH    H313052   8.853   1.461   3.812
  520ACOH    H413053   8.973   1.036   5.378
  520ACOH    O213054   8.995   0.989   5.463
  520ACOH    C213055   8.894   0.904   5.487
  520ACOH    O113056   8.783   0.906   5.436
  520ACOH    C113057   8.925   0.819   5.604
  520ACOH    H113058   8.956   0.883   5.686
  520ACOH    H213059   9.006   0.751   5.579
  520ACOH    H313060   8.838   0.761   5.634
  521ACOH    H413061   8.110   0.257   5.358
  521ACOH    O213062   8.076   0.341   5.314
  521ACOH    C213063   8.066   0.311   5.183
  521ACOH    O113064   8.064   0.200   5.134
  521ACOH    C113065   8.037   0.433   5.105
  521ACOH    H113066   8.017   0.408   5.001
  521ACOH    H213067   8.123   0.500   5.109
  521ACOH    H313068   7.950   0.484   5.146
  522ACOH    H413069   8.645   1.652   3.803
  522ACOH    O213070   8.710   1.672   3.876
  522ACOH    C213071   8.656   1.619   3.988
  522ACOH    O113072   8.538   1.595   4.006
  522ACOH    C113073   8.753   1.623   4.101
  522ACOH    H113074   8.854   1.640   4.065
  522ACOH    H213075   8.750   1.529   4.155
  522ACOH    H313076   8.726   1.703   4.169
  523ACOH    H413077   8.981   0.987   7.230
  523ACOH    O213078   9.005   0.932   7.309
  523ACOH    C213079   8.893   0.864   7.341
  523ACOH    O113080   8.784   0.879   7.290
  523ACOH    C113081   8.914   0.778   7.460
  523ACOH    H113082   8.867   0.825   7.546
  523ACOH    H213083   9.019   0.764   7.480
  523ACOH    H313084   8.867   0.681   7.444
  524ACOH    H413085   8.058   0.122   7.187
  524ACOH    O213086   8.034   0.211   7.151
  524ACOH    C213087   8.039   0.201   7.017
  524ACOH    O113088   8.060   0.100   6.952
  524ACOH    C113089   8.012   0.333   6.955
  524ACOH    H113090   8.010   0.325   6.847
  524ACOH    H213091   8.090   0.403   6.984
  524ACOH    H313092   7.916   0.371   6.989
  525ACOH    H413093   8.635   1.578   5.633
  525ACOH    O213094   8.707   1.590   5.701
  525ACOH    C213095   8.655   1.563   5.822
  525ACOH    O113096   8.541   1.526   5.847
  525ACOH    C113097   8.755   1.584   5.929
  525ACOH    H113098   8.851   1.613   5.887
  525ACOH    H213099   8.768   1.494   5.987
  525ACOH    H313100   8.721   1.664   5.995
  526ACOH    H413101   8.705   1.128   7.552
  526ACOH    O213102   8.740   1.219   7.576
  526ACOH    C213103   8.826   1.258   7.480
  526ACOH    O113104   8.854   1.199   7.377
  526ACOH    C113105   8.892   1.386   7.516
  526ACOH    H113106   8.999   1.370   7.525
  526ACOH    H213107   8.855   1.422   7.611
  526ACOH    H313108   8.873   1.461   7.440
  527ACOH    H413109   9.048   0.907   9.077
  527ACOH    O213110   9.009   0.918   9.168
  527ACOH    C213111   8.881   0.876   9.158
  527ACOH    O113112   8.813   0.873   9.057
  527ACOH    C113113   8.824   0.858   9.293
  527ACOH    H113114   8.843   0.946   9.354
  527ACOH    H213115   8.870   0.772   9.341
  527ACOH    H313116   8.717   0.841   9.288
  528ACOH    H413117   8.192   0.150   9.021
  528ACOH    O213118   8.145   0.233   8.993
  528ACOH    C213119   8.105   0.212   8.866
  528ACOH    O113120   8.113   0.107   8.805
  528ACOH    C113121   8.038   0.333   8.813
  528ACOH    H113122   8.003   0.316   8.711
  528ACOH    H213123   8.108   0.416   8.812
  528ACOH    H313124   7.953   0.359   8.875
  529ACOH    H413125   8.645   1.626   7.486
  529ACOH    O213126   8.712   1.651   7.555
  529ACOH    C213127   8.652   1.634   7.675
  529ACOH    O113128   8.532   1.637   7.694
  529ACOH    C113129   8.749   1.641   7.786
  529ACOH    H113130   8.851   1.637   7.750
  529ACOH    H213131   8.733   1.557   7.853
  529ACOH    H313132   8.735   1.733   7.842
  530ACOH    H413133   8.629   1.619   9.355
  530ACOH    O213134   8.684   1.650   9.433
  530ACOH    C213135   8.632   1.589   9.541
  530ACOH    O113136   8.516   1.557   9.554
  530ACOH    C113137   8.723   1.600   9.658
  530ACOH    H113138   8.824   1.624   9.625
  530ACOH    H213139   8.726   1.504   9.710
  530ACOH    H313140   8.688   1.677   9.725
  531ACOH    H413141   8.642   2.922   0.219
  531ACOH    O213142   8.702   2.991   0.257
  531ACOH    C213143   8.758   3.056   0.153
  531ACOH    O113144   8.763   3.016   0.038
  531ACOH    C113145   8.831   3.176   0.200
  531ACOH    H113146   8.938   3.160   0.190
  531ACOH    H213147   8.809   3.198   0.304
  531ACOH    H313148   8.801   3.262   0.140
  532ACOH    H413149   8.988   2.841   1.705
  532ACOH    O213150   8.999   2.792   1.791
  532ACOH    C213151   8.892   2.712   1.802
  532ACOH    O113152   8.804   2.695   1.718
  532ACOH    C113153   8.896   2.637   1.929
  532ACOH    H113154   8.884   2.706   2.012
  532ACOH    H213155   8.992   2.586   1.939
  532ACOH    H313156   8.816   2.563   1.933
  533ACOH    H413157   8.074   2.086   1.590
  533ACOH    O213158   8.095   2.147   1.513
  533ACOH    C213159   8.120   2.065   1.408
  533ACOH    O113160   8.138   1.945   1.411
  533ACOH    C113161   8.134   2.146   1.285
  533ACOH    H113162   8.156   2.083   1.199
  533ACOH    H213163   8.215   2.218   1.297
  533ACOH    H313164   8.042   2.200   1.267
  534ACOH    H413165   8.501   3.548   0.186
  534ACOH    O213166   8.592   3.563   0.224
  534ACOH    C213167   8.613   3.462   0.311
  534ACOH    O113168   8.540   3.367   0.333
  534ACOH    C113169   8.743   3.480   0.381
  534ACOH    H113170   8.824   3.483   0.308
  534ACOH    H213171   8.761   3.399   0.451
  534ACOH    H313172   8.742   3.574   0.435
  535ACOH    H413173   8.707   2.972   2.031
  535ACOH    O213174   8.755   3.053   2.065
  535ACOH    C213175   8.843   3.089   1.969
  535ACOH    O113176   8.850   3.046   1.856
  535ACOH    C113177   8.932   3.198   2.015
  535ACOH    H113178   9.036   3.168   2.001
  535ACOH    H213179   8.916   3.220   2.120
  535ACOH    H313180   8.913   3.288   1.957
  536ACOH    H413181   8.970   2.848   3.545
  536ACOH    O213182   8.981   2.804   3.634
  536ACOH    C213183   8.876   2.721   3.648
  536ACOH    O113184   8.779   2.713   3.575
  536ACOH    C113185   8.890   2.642   3.772
  536ACOH    H113186   8.889   2.709   3.857
  536ACOH    H213187   8.984   2.587   3.771
  536ACOH    H313188   8.808   2.572   3.782
  537ACOH    H413189   8.106   2.030   3.490
  537ACOH    O213190   8.078   2.115   3.444
  537ACOH    C213191   8.087   2.090   3.312
  537ACOH    O113192   8.120   1.985   3.259
  537ACOH    C113193   8.050   2.210   3.234
  537ACOH    H113194   8.057   2.192   3.128
  537ACOH    H213195   8.116   2.293   3.261
  537ACOH    H313196   7.948   2.238   3.258
  538ACOH    H413197   8.704   2.986   3.861
  538ACOH    O213198   8.745   3.069   3.899
  538ACOH    C213199   8.837   3.112   3.812
  538ACOH    O113200   8.849   3.080   3.695
  538ACOH    C113201   8.916   3.224   3.869
  538ACOH    H113202   9.022   3.206   3.852
  538ACOH    H213203   8.899   3.233   3.976
  538ACOH    H313204   8.888   3.318   3.821
  539ACOH    H413205   8.956   2.854   5.396
  539ACOH    O213206   8.968   2.807   5.483
  539ACOH    C213207   8.859   2.730   5.500
  539ACOH    O113208   8.760   2.728   5.430
  539ACOH    C113209   8.872   2.648   5.622
  539ACOH    H113210   8.873   2.712   5.709
  539ACOH    H213211   8.966   2.592   5.618
  539ACOH    H313212   8.790   2.577   5.630
  540ACOH    H413213   8.173   2.062   5.365
  540ACOH    O213214   8.124   2.142   5.329
  540ACOH    C213215   8.089   2.109   5.203
  540ACOH    O113216   8.108   2.003   5.146
  540ACOH    C113217   8.020   2.223   5.138
  540ACOH    H113218   7.991   2.199   5.036
  540ACOH    H213219   8.086   2.309   5.136
  540ACOH    H313220   7.931   2.249   5.195
  541ACOH    H413221   8.648   3.473   3.805
  541ACOH    O213222   8.709   3.499   3.880
  541ACOH    C213223   8.654   3.451   3.993
  541ACOH    O113224   8.535   3.434   4.011
  541ACOH    C113225   8.749   3.457   4.106
  541ACOH    H113226   8.851   3.467   4.071
  541ACOH    H213227   8.741   3.366   4.165
  541ACOH    H313228   8.726   3.542   4.170
  542ACOH    H413229   8.675   2.970   5.727
  542ACOH    O213230   8.716   3.050   5.768
  542ACOH    C213231   8.784   3.117   5.673
  542ACOH    O113232   8.824   3.072   5.568
  542ACOH    C113233   8.836   3.245   5.727
  542ACOH    H113234   8.943   3.238   5.743
  542ACOH    H213235   8.788   3.270   5.821
  542ACOH    H313236   8.816   3.325   5.656
  543ACOH    H413237   8.956   2.834   7.200
  543ACOH    O213238   8.979   2.793   7.287
  543ACOH    C213239   8.865   2.738   7.333
  543ACOH    O113240   8.755   2.748   7.284
  543ACOH    C113241   8.887   2.669   7.463
  543ACOH    H113242   8.844   2.728   7.543
  543ACOH    H213243   8.993   2.654   7.482
  543ACOH    H313244   8.837   2.572   7.461
  544ACOH    H413245   8.658   2.940   7.614
  544ACOH    O213246   8.698   3.013   7.669
  544ACOH    C213247   8.787   3.078   7.592
  544ACOH    O113248   8.828   3.045   7.483
  544ACOH    C113249   8.850   3.189   7.668
  544ACOH    H113250   8.953   3.165   7.690
  544ACOH    H213251   8.797   3.208   7.761
  544ACOH    H313252   8.847   3.280   7.608
  545ACOH    H413253   9.001   2.795   9.056
  545ACOH    O213254   8.982   2.791   9.154
  545ACOH    C213255   8.880   2.705   9.171
  545ACOH    O113256   8.814   2.652   9.083
  545ACOH    C113257   8.859   2.678   9.315
  545ACOH    H113258   8.841   2.772   9.366
  545ACOH    H213259   8.948   2.632   9.356
  545ACOH    H313260   8.775   2.612   9.329
  546ACOH    H413261   8.678   2.960   9.476
  546ACOH    O213262   8.727   3.033   9.523
  546ACOH    C213263   8.808   3.092   9.433
  546ACOH    O113264   8.835   3.052   9.322
  546ACOH    C113265   8.878   3.209   9.492
  546ACOH    H113266   8.984   3.188   9.498
  546ACOH    H213267   8.841   3.230   9.592
  546ACOH    H313268   8.862   3.296   9.430
  547ACOH    H413269   8.640   3.515   9.371
  547ACOH    O213270   8.704   3.516   9.447
  547ACOH    C213271   8.635   3.476   9.556
  547ACOH    O113272   8.518   3.444   9.559
  547ACOH    C113273   8.720   3.475   9.678
  547ACOH    H113274   8.824   3.493   9.653
  547ACOH    H213275   8.711   3.380   9.729
  547ACOH    H313276   8.686   3.554   9.745
  548ACOH    H413277   8.981   4.700   1.691
  548ACOH    O213278   8.991   4.651   1.778
  548ACOH    C213279   8.890   4.562   1.783
  548ACOH    O113280   8.797   4.552   1.705
  548ACOH    C113281   8.903   4.477   1.904
  548ACOH    H113282   8.897   4.540   1.992
  548ACOH    H213283   8.999   4.426   1.903
  548ACOH    H313284   8.822   4.404   1.908
  549ACOH    H413285   7.965   3.704   1.477
  549ACOH    O213286   7.952   3.792   1.521
  549ACOH    C213287   8.028   3.877   1.450
  549ACOH    O113288   8.122   3.847   1.379
  549ACOH    C113289   7.993   4.018   1.481
  549ACOH    H113290   8.054   4.086   1.423
  549ACOH    H213291   8.010   4.037   1.587
  549ACOH    H313292   7.888   4.035   1.458
  550ACOH    H413293   8.708   4.784   2.018
  550ACOH    O213294   8.753   4.865   2.055
  550ACOH    C213295   8.821   4.925   1.955
  550ACOH    O113296   8.812   4.902   1.836
  550ACOH    C113297   8.903   5.038   2.006
  550ACOH    H113298   9.007   5.023   1.978
  550ACOH    H213299   8.897   5.045   2.114
  550ACOH    H313300   8.868   5.131   1.963
  551ACOH    H413301   8.973   4.707   3.571
  551ACOH    O213302   8.984   4.656   3.656
  551ACOH    C213303   8.889   4.560   3.654
  551ACOH    O113304   8.805   4.541   3.568
  551ACOH    C113305   8.899   4.475   3.775
  551ACOH    H113306   8.882   4.537   3.863
  551ACOH    H213307   8.997   4.430   3.781
  551ACOH    H313308   8.824   4.397   3.773
  552ACOH    H413309   8.137   3.824   3.480
  552ACOH    O213310   8.122   3.911   3.432
  552ACOH    C213311   8.107   3.881   3.301
  552ACOH    O113312   8.121   3.772   3.249
  552ACOH    C113313   8.079   4.004   3.223
  552ACOH    H113314   8.082   3.983   3.117
  552ACOH    H213315   8.153   4.080   3.246
  552ACOH    H313316   7.980   4.041   3.249
  553ACOH    H413317   8.692   5.306   1.940
  553ACOH    O213318   8.743   5.343   2.019
  553ACOH    C213319   8.675   5.303   2.127
  553ACOH    O113320   8.553   5.302   2.135
  553ACOH    C113321   8.759   5.309   2.249
  553ACOH    H113322   8.865   5.306   2.223
  553ACOH    H213323   8.737   5.223   2.312
  553ACOH    H313324   8.738   5.400   2.304
  554ACOH    H413325   8.728   4.814   3.861
  554ACOH    O213326   8.778   4.888   3.905
  554ACOH    C213327   8.841   4.958   3.809
  554ACOH    O113328   8.834   4.940   3.689
  554ACOH    C113329   8.921   5.069   3.866
  554ACOH    H113330   9.023   5.063   3.831
  554ACOH    H213331   8.922   5.065   3.975
  554ACOH    H313332   8.877   5.164   3.836
  555ACOH    H413333   8.973   4.715   5.379
  555ACOH    O213334   8.981   4.675   5.470
  555ACOH    C213335   8.876   4.591   5.482
  555ACOH    O113336   8.778   4.588   5.411
  555ACOH    C113337   8.890   4.508   5.604
  555ACOH    H113338   8.884   4.572   5.691
  555ACOH    H213339   8.985   4.456   5.603
  555ACOH    H313340   8.810   4.434   5.609
  556ACOH    H413341   8.092   3.865   5.358
  556ACOH    O213342   8.051   3.940   5.306
  556ACOH    C213343   8.054   3.902   5.176
  556ACOH    O113344   8.098   3.798   5.132
  556ACOH    C113345   7.995   4.008   5.091
  556ACOH    H113346   7.997   3.978   4.986
  556ACOH    H213347   8.050   4.100   5.102
  556ACOH    H313348   7.891   4.024   5.120
  557ACOH    H413349   8.672   5.339   3.898
  557ACOH    O213350   8.737   5.352   3.972
  557ACOH    C213351   8.674   5.315   4.085
  557ACOH    O113352   8.553   5.313   4.102
  557ACOH    C113353   8.769   5.306   4.198
  557ACOH    H113354   8.871   5.304   4.163
  557ACOH    H213355   8.749   5.215   4.254
  557ACOH    H313356   8.756   5.392   4.264
  558ACOH    H413357   8.120   3.845   7.136
  558ACOH    O213358   8.093   3.927   7.085
  558ACOH    C213359   8.089   3.892   6.955
  558ACOH    O113360   8.101   3.779   6.909
  558ACOH    C113361   8.059   4.010   6.871
  558ACOH    H113362   8.048   3.981   6.766
  558ACOH    H213363   8.139   4.082   6.879
  558ACOH    H313364   7.966   4.056   6.904
  559ACOH    H413365   8.972   4.719   9.091
  559ACOH    O213366   8.973   4.677   9.181
  559ACOH    C213367   8.885   4.575   9.178
  559ACOH    O113368   8.816   4.542   9.084
  559ACOH    C113369   8.876   4.509   9.311
  559ACOH    H113370   8.847   4.582   9.386
  559ACOH    H213371   8.972   4.467   9.338
  559ACOH    H313372   8.802   4.430   9.309
  560ACOH    H413373   8.008   3.872   8.995
  560ACOH    O213374   7.979   3.951   8.939
  560ACOH    C213375   8.030   3.930   8.816
  560ACOH    O113376   8.078   3.826   8.774
  560ACOH    C113377   8.009   4.049   8.731
  560ACOH    H113378   8.045   4.031   8.630
  560ACOH    H213379   8.063   4.134   8.773
  560ACOH    H313380   7.903   4.073   8.727
  561ACOH    H413381   8.694   6.694   0.245
  561ACOH    O213382   8.758   6.753   0.294
  561ACOH    C213383   8.843   6.803   0.201
  561ACOH    O113384   8.832   6.796   0.080
  561ACOH    C113385   8.954   6.877   0.265
  561ACOH    H113386   9.048   6.827   0.243
  561ACOH    H213387   8.941   6.882   0.373
  561ACOH    H313388   8.958   6.978   0.226
  562ACOH    H413389   8.984   6.545   1.713
  562ACOH    O213390   8.996   6.496   1.799
  562ACOH    C213391   8.888   6.415   1.810
  562ACOH    O113392   8.792   6.412   1.735
  562ACOH    C113393   8.899   6.330   1.930
  562ACOH    H113394   8.891   6.391   2.019
  562ACOH    H213395   8.995   6.278   1.931
  562ACOH    H313396   8.820   6.255   1.932
  563ACOH    H413397   8.155   5.708   1.605
  563ACOH    O213398   8.116   5.783   1.550
  563ACOH    C213399   8.116   5.741   1.422
  563ACOH    O113400   8.139   5.628   1.383
  563ACOH    C113401   8.069   5.849   1.332
  563ACOH    H113402   8.062   5.814   1.230
  563ACOH    H213403   8.139   5.932   1.336
  563ACOH    H313404   7.972   5.884   1.365
  564ACOH    H413405   8.653   7.045   0.095
  564ACOH    O213406   8.714   7.094   0.156
  564ACOH    C213407   8.661   7.086   0.280
  564ACOH    O113408   8.549   7.047   0.308
  564ACOH    C113409   8.751   7.145   0.381
  564ACOH    H113410   8.848   7.170   0.338
  564ACOH    H213411   8.768   7.074   0.462
  564ACOH    H313412   8.707   7.235   0.423
  565ACOH    H413413   8.697   6.665   2.019
  565ACOH    O213414   8.736   6.748   2.058
  565ACOH    C213415   8.833   6.791   1.976
  565ACOH    O113416   8.850   6.758   1.860
  565ACOH    C113417   8.911   6.901   2.037
  565ACOH    H113418   9.017   6.877   2.032
  565ACOH    H213419   8.883   6.915   2.141
  565ACOH    H313420   8.892   6.994   1.983
  566ACOH    H413421   8.970   6.537   3.550
  566ACOH    O213422   8.983   6.489   3.637
  566ACOH    C213423   8.877   6.406   3.649
  566ACOH    O113424   8.778   6.403   3.578
  566ACOH    C113425   8.892   6.321   3.769
  566ACOH    H113426   8.894   6.383   3.858
  566ACOH    H213427   8.985   6.265   3.763
  566ACOH    H313428   8.809   6.251   3.777
  567ACOH    H413429   8.056   5.734   3.497
  567ACOH    O213430   8.055   5.826   3.458
  567ACOH    C213431   8.002   5.815   3.335
  567ACOH    O113432   7.935   5.723   3.292
  567ACOH    C113433   8.020   5.941   3.260
  567ACOH    H113434   7.976   5.935   3.161
  567ACOH    H213435   8.126   5.963   3.250
  567ACOH    H313436   7.973   6.023   3.314
  568ACOH    H413437   8.629   7.118   1.997
  568ACOH    O213438   8.699   7.135   2.066
  568ACOH    C213439   8.638   7.131   2.186
  568ACOH    O113440   8.518   7.129   2.206
  568ACOH    C113441   8.736   7.143   2.297
  568ACOH    H113442   8.838   7.144   2.259
  568ACOH    H213443   8.724   7.059   2.364
  568ACOH    H313444   8.718   7.236   2.351
  569ACOH    H413445   8.703   6.667   3.855
  569ACOH    O213446   8.746   6.749   3.893
  569ACOH    C213447   8.837   6.792   3.804
  569ACOH    O113448   8.840   6.767   3.685
  569ACOH    C113449   8.923   6.899   3.862
  569ACOH    H113450   9.027   6.877   3.841
  569ACOH    H213451   8.910   6.903   3.970
  569ACOH    H313452   8.897   6.995   3.819
  570ACOH    H413453   8.973   6.538   5.390
  570ACOH    O213454   8.986   6.490   5.477
  570ACOH    C213455   8.877   6.412   5.490
  570ACOH    O113456   8.775   6.418   5.425
  570ACOH    C113457   8.892   6.321   5.606
  570ACOH    H113458   8.891   6.379   5.697
  570ACOH    H213459   8.987   6.268   5.599
  570ACOH    H313460   8.811   6.248   5.609
  571ACOH    H413461   8.131   5.723   5.329
  571ACOH    O213462   8.099   5.805   5.281
  571ACOH    C213463   8.101   5.775   5.150
  571ACOH    O113464   8.132   5.668   5.100
  571ACOH    C113465   8.058   5.892   5.070
  571ACOH    H113466   8.061   5.870   4.964
  571ACOH    H213467   8.123   5.977   5.091
  571ACOH    H313468   7.956   5.918   5.097
  572ACOH    H413469   8.663   7.128   3.813
  572ACOH    O213470   8.717   7.165   3.889
  572ACOH    C213471   8.673   7.102   4.000
  572ACOH    O113472   8.562   7.054   4.015
  572ACOH    C113473   8.762   7.128   4.116
  572ACOH    H113474   8.860   7.163   4.082
  572ACOH    H213475   8.776   7.037   4.173
  572ACOH    H313476   8.718   7.204   4.180
  573ACOH    H413477   8.693   6.655   5.716
  573ACOH    O213478   8.732   6.736   5.757
  573ACOH    C213479   8.818   6.790   5.667
  573ACOH    O113480   8.823   6.766   5.548
  573ACOH    C113481   8.896   6.901   5.727
  573ACOH    H113482   9.002   6.884   5.709
  573ACOH    H213483   8.880   6.906   5.834
  573ACOH    H313484   8.867   6.995   5.682
  574ACOH    H413485   8.623   7.158   5.670
  574ACOH    O213486   8.690   7.170   5.742
  574ACOH    C213487   8.632   7.137   5.859
  574ACOH    O113488   8.512   7.131   5.881
  574ACOH    C113489   8.732   7.131   5.969
  574ACOH    H113490   8.833   7.144   5.931
  574ACOH    H213491   8.726   7.035   6.018
  574ACOH    H313492   8.711   7.209   6.042
  575ACOH    H413493   8.730   6.614   7.503
  575ACOH    O213494   8.812   6.671   7.505
  575ACOH    C213495   8.771   6.799   7.490
  575ACOH    O113496   8.668   6.836   7.438
  575ACOH    C113497   8.883   6.891   7.522
  575ACOH    H113498   8.973   6.860   7.471
  575ACOH    H213499   8.900   6.890   7.630
  575ACOH    H313500   8.858   6.993   7.492
  576ACOH    H413501   8.977   6.566   9.106
  576ACOH    O213502   8.989   6.516   9.191
  576ACOH    C213503   8.889   6.426   9.194
  576ACOH    O113504   8.792   6.423   9.121
  576ACOH    C113505   8.908   6.332   9.307
  576ACOH    H113506   8.908   6.388   9.400
  576ACOH    H213507   9.003   6.280   9.297
  576ACOH    H313508   8.828   6.259   9.310
  577ACOH    H413509   7.884   5.794   8.758
  577ACOH    O213510   7.940   5.855   8.814
  577ACOH    C213511   8.060   5.855   8.754
  577ACOH    O113512   8.109   5.765   8.689
  577ACOH    C113513   8.141   5.972   8.796
  577ACOH    H113514   8.186   6.019   8.709
  577ACOH    H213515   8.219   5.941   8.865
  577ACOH    H313516   8.078   6.046   8.846
  578ACOH    H413517   8.693   7.187   7.519
  578ACOH    O213518   8.742   7.200   7.606
  578ACOH    C213519   8.657   7.163   7.704
  578ACOH    O113520   8.536   7.155   7.695
  578ACOH    C113521   8.727   7.150   7.834
  578ACOH    H113522   8.835   7.161   7.821
  578ACOH    H213523   8.707   7.052   7.876
  578ACOH    H313524   8.692   7.226   7.902
  579ACOH    H413525   8.699   6.678   9.406
  579ACOH    O213526   8.734   6.765   9.440
  579ACOH    C213527   8.824   6.810   9.350
  579ACOH    O113528   8.833   6.776   9.233
  579ACOH    C113529   8.901   6.924   9.403
  579ACOH    H113530   9.007   6.907   9.387
  579ACOH    H213531   8.885   6.936   9.510
  579ACOH    H313532   8.872   7.016   9.352
  580ACOH    H413533   8.630   7.171   9.365
  580ACOH    O213534   8.705   7.191   9.428
  580ACOH    C213535   8.658   7.166   9.553
  580ACOH    O113536   8.542   7.169   9.587
  580ACOH    C113537   8.768   7.167   9.652
  580ACOH    H113538   8.865   7.164   9.603
  580ACOH    H213539   8.760   7.081   9.717
  580ACOH    H313540   8.763   7.257   9.712
  581ACOH    H413541   8.670   8.558   0.215
  581ACOH    O213542   8.715   8.638   0.254
  581ACOH    C213543   8.791   8.686   0.154
  581ACOH    O113544   8.757   8.688   0.037
  581ACOH    C113545   8.902   8.771   0.204
  581ACOH    H113546   8.994   8.741   0.156
  581ACOH    H213547   8.914   8.759   0.312
  581ACOH    H313548   8.883   8.875   0.181
  582ACOH    H413549   8.996   8.421   1.731
  582ACOH    O213550   8.976   8.397   1.825
  582ACOH    C213551   8.886   8.298   1.820
  582ACOH    O113552   8.836   8.250   1.720
  582ACOH    C113553   8.842   8.259   1.956
  582ACOH    H113554   8.824   8.348   2.016
  582ACOH    H213555   8.918   8.198   2.003
  582ACOH    H313556   8.749   8.202   1.952
  583ACOH    H413557   8.619   8.966   0.084
  583ACOH    O213558   8.672   9.011   0.156
  583ACOH    C213559   8.615   8.974   0.272
  583ACOH    O113560   8.499   8.939   0.287
  583ACOH    C113561   8.700   9.011   0.388
  583ACOH    H113562   8.803   9.029   0.356
  583ACOH    H213563   8.699   8.931   0.462
  583ACOH    H313564   8.661   9.102   0.434
  584ACOH    H413565   8.648   8.537   1.880
  584ACOH    O213566   8.698   8.567   1.961
  584ACOH    C213567   8.800   8.643   1.917
  584ACOH    O113568   8.819   8.682   1.804
  584ACOH    C113569   8.887   8.685   2.029
  584ACOH    H113570   8.988   8.648   2.012
  584ACOH    H213571   8.850   8.646   2.123
  584ACOH    H313572   8.890   8.794   2.034
  585ACOH    H413573   8.984   8.399   3.562
  585ACOH    O213574   8.994   8.348   3.648
  585ACOH    C213575   8.885   8.269   3.655
  585ACOH    O113576   8.785   8.276   3.585
  585ACOH    C113577   8.895   8.176   3.770
  585ACOH    H113578   8.885   8.231   3.863
  585ACOH    H213579   8.991   8.126   3.768
  585ACOH    H313580   8.817   8.101   3.765
  586ACOH    H413581   8.069   7.539   3.562
  586ACOH    O213582   8.054   7.627   3.516
  586ACOH    C213583   8.119   7.615   3.399
  586ACOH    O113584   8.135   7.513   3.334
  586ACOH    C113585   8.150   7.749   3.344
  586ACOH    H113586   8.181   7.742   3.240
  586ACOH    H213587   8.229   7.794   3.402
  586ACOH    H313588   8.062   7.813   3.350
  587ACOH    H413589   8.638   8.985   1.931
  587ACOH    O213590   8.706   9.011   1.999
  587ACOH    C213591   8.659   8.974   2.120
  587ACOH    O113592   8.544   8.944   2.146
  587ACOH    C113593   8.759   8.999   2.227
  587ACOH    H113594   8.857   9.017   2.184
  587ACOH    H213595   8.764   8.914   2.294
  587ACOH    H313596   8.729   9.087   2.284
  588ACOH    H413597   8.702   8.518   3.858
  588ACOH    O213598   8.744   8.602   3.892
  588ACOH    C213599   8.834   8.642   3.800
  588ACOH    O113600   8.832   8.616   3.681
  588ACOH    C113601   8.923   8.747   3.855
  588ACOH    H113602   9.026   8.724   3.831
  588ACOH    H213603   8.914   8.753   3.963
  588ACOH    H313604   8.898   8.844   3.812
  589ACOH    H413605   8.988   8.395   5.385
  589ACOH    O213606   9.000   8.345   5.471
  589ACOH    C213607   8.891   8.267   5.484
  589ACOH    O113608   8.792   8.267   5.413
  589ACOH    C113609   8.904   8.179   5.603
  589ACOH    H113610   8.903   8.240   5.693
  589ACOH    H213611   8.997   8.124   5.598
  589ACOH    H313612   8.821   8.109   5.607
  590ACOH    H413613   8.117   7.560   5.341
  590ACOH    O213614   8.095   7.647   5.294
  590ACOH    C213615   8.091   7.618   5.163
  590ACOH    O113616   8.112   7.509   5.111
  590ACOH    C113617   8.059   7.739   5.085
  590ACOH    H113618   8.061   7.718   4.978
  590ACOH    H213619   8.131   7.817   5.107
  590ACOH    H313620   7.959   7.775   5.112
  591ACOH    H413621   8.661   9.007   3.800
  591ACOH    O213622   8.732   9.017   3.869
  591ACOH    C213623   8.671   9.011   3.989
  591ACOH    O113624   8.553   9.029   4.010
  591ACOH    C113625   8.769   9.000   4.100
  591ACOH    H113626   8.869   8.986   4.062
  591ACOH    H213627   8.743   8.914   4.162
  591ACOH    H313628   8.766   9.090   4.161
  592ACOH    H413629   8.703   8.502   5.699
  592ACOH    O213630   8.745   8.583   5.739
  592ACOH    C213631   8.831   8.634   5.649
  592ACOH    O113632   8.833   8.612   5.529
  592ACOH    C113633   8.912   8.744   5.708
  592ACOH    H113634   9.017   8.727   5.686
  592ACOH    H213635   8.900   8.747   5.816
  592ACOH    H313636   8.882   8.839   5.666
  593ACOH    H413637   8.970   8.393   7.238
  593ACOH    O213638   8.981   8.345   7.325
  593ACOH    C213639   8.875   8.262   7.334
  593ACOH    O113640   8.779   8.259   7.261
  593ACOH    C113641   8.888   8.176   7.454
  593ACOH    H113642   8.883   8.238   7.543
  593ACOH    H213643   8.983   8.124   7.453
  593ACOH    H313644   8.808   8.103   7.457
  594ACOH    H413645   8.073   7.560   7.174
  594ACOH    O213646   8.055   7.648   7.130
  594ACOH    C213647   8.074   7.627   6.998
  594ACOH    O113648   8.107   7.523   6.945
  594ACOH    C113649   8.050   7.752   6.923
  594ACOH    H113650   8.061   7.736   6.816
  594ACOH    H213651   8.120   7.829   6.955
  594ACOH    H313652   7.949   7.787   6.943
  595ACOH    H413653   8.636   8.987   5.651
  595ACOH    O213654   8.700   9.011   5.725
  595ACOH    C213655   8.647   8.965   5.840
  595ACOH    O113656   8.529   8.943   5.858
  595ACOH    C113657   8.742   8.980   5.953
  595ACOH    H113658   8.844   8.990   5.916
  595ACOH    H213659   8.737   8.892   6.016
  595ACOH    H313660   8.717   9.068   6.011
  596ACOH    H413661   8.699   8.515   7.543
  596ACOH    O213662   8.743   8.598   7.576
  596ACOH    C213663   8.829   8.640   7.481
  596ACOH    O113664   8.827   8.610   7.363
  596ACOH    C113665   8.917   8.748   7.532
  596ACOH    H113666   9.020   8.725   7.508
  596ACOH    H213667   8.908   8.758   7.640
  596ACOH    H313668   8.890   8.842   7.485
  597ACOH    H413669   8.974   8.404   9.083
  597ACOH    O213670   8.982   8.352   9.168
  597ACOH    C213671   8.876   8.268   9.170
  597ACOH    O113672   8.782   8.268   9.093
  597ACOH    C113673   8.885   8.175   9.285
  597ACOH    H113674   8.873   8.231   9.378
  597ACOH    H213675   8.982   8.127   9.286
  597ACOH    H313676   8.808   8.099   9.279
  598ACOH    H413677   8.123   7.575   9.044
  598ACOH    O213678   8.100   7.661   8.996
  598ACOH    C213679   8.113   7.636   8.865
  598ACOH    O113680   8.141   7.530   8.813
  598ACOH    C113681   8.085   7.759   8.787
  598ACOH    H113682   8.094   7.740   8.680
  598ACOH    H213683   8.155   7.837   8.815
  598ACOH    H313684   7.984   7.794   8.808
  599ACOH    H413685   8.633   8.975   7.486
  599ACOH    O213686   8.704   9.002   7.552
  599ACOH    C213687   8.660   8.970   7.675
  599ACOH    O113688   8.544   8.955   7.707
  599ACOH    C113689   8.766   8.993   7.776
  599ACOH    H113690   8.864   8.998   7.729
  599ACOH    H213691   8.766   8.911   7.847
  599ACOH    H313692   8.747   9.086   7.828
  600ACOH    H413693   8.676   8.496   9.400
  600ACOH    O213694   8.719   8.575   9.443
  600ACOH    C213695   8.801   8.631   9.352
  600ACOH    O113696   8.800   8.611   9.232
  600ACOH    C113697   8.882   8.739   9.414
  600ACOH    H113698   8.985   8.729   9.382
  600ACOH    H213699   8.879   8.733   9.522
  600ACOH    H313700   8.844   8.836   9.382
  601ACOH    H413701   8.645   9.005   9.370
  601ACOH    O213702   8.699   9.035   9.448
  601ACOH    C213703   8.653   8.970   9.556
  601ACOH    O113704   8.540   8.926   9.568
  601ACOH    C113705   8.743   8.988   9.672
  601ACOH    H113706   8.841   9.021   9.640
  601ACOH    H213707   8.753   8.894   9.726
  601ACOH    H313708   8.701   9.063   9.739
  602ACOH    H413709   8.121   9.404   1.642
  602ACOH    O213710   8.076   9.486   1.605
  602ACOH    C213711   8.046   9.457   1.477
  602ACOH    O113712   8.079   9.359   1.414
  602ACOH    C113713   7.970   9.570   1.418
  602ACOH    H113714   7.957   9.555   1.311
  602ACOH    H213715   8.024   9.663   1.435
  602ACOH    H313716   7.873   9.577   1.464
  603ACOH    H413717   8.097   9.412   3.451
  603ACOH    O213718   8.075   9.495   3.399
  603ACOH    C213719   8.086   9.462   3.269
  603ACOH    O113720   8.116   9.353   3.224
  603ACOH    C113721   8.055   9.579   3.184
  603ACOH    H113722   8.065   9.554   3.078
  603ACOH    H213723   8.124   9.660   3.207
  603ACOH    H313724   7.953   9.612   3.203
  604ACOH    H413725   8.098   9.405   5.318
  604ACOH    O213726   8.071   9.487   5.267
  604ACOH    C213727   8.082   9.454   5.136
  604ACOH    O113728   8.114   9.346   5.090
  604ACOH    C113729   8.049   9.571   5.052
  604ACOH    H113730   8.062   9.547   4.946
  604ACOH    H213731   8.113   9.655   5.077
  604ACOH    H313732   7.945   9.600   5.068
  605ACOH    H413733   8.103   9.398   7.181
  605ACOH    O213734   8.079   9.483   7.134
  605ACOH    C213735   8.081   9.455   7.002
  605ACOH    O113736   8.112   9.349   6.951
  605ACOH    C113737   8.045   9.575   6.922
  605ACOH    H113738   8.053   9.554   6.816
  605ACOH    H213739   8.111   9.657   6.947
  605ACOH    H313740   7.943   9.603   6.945
  606ACOH    H413741   8.099   9.404   9.016
  606ACOH    O213742   8.068   9.486   8.965
  606ACOH    C213743   8.090   9.459   8.835
  606ACOH    O113744   8.127   9.353   8.787
  606ACOH    C113745   8.061   9.579   8.752
  606ACOH    H113746   8.074   9.556   8.647
  606ACOH    H213747   8.128   9.660   8.779
  606ACOH    H313748   7.958   9.610   8.770
  607ACOH    H413749   9.924   0.174   3.497
  607ACOH    O213750   9.913   0.272   3.478
  607ACOH    C213751   9.875   0.283   3.349
  607ACOH    O113752   9.850   0.192   3.272
  607ACOH    C113753   9.867   0.425   3.309
  607ACOH    H113754   9.833   0.435   3.206
  607ACOH    H213755   9.966   0.471   3.317
  607ACOH    H313756   9.799   0.479   3.374
  608ACOH    H413757   9.859   0.186   5.281
  608ACOH    O213758   9.832   0.278   5.253
  608ACOH    C213759   9.852   0.285   5.120
  608ACOH    O113760   9.874   0.192   5.045
  608ACOH    C113761   9.836   0.425   5.073
  608ACOH    H113762   9.855   0.433   4.967
  608ACOH    H213763   9.906   0.489   5.126
  608ACOH    H313764   9.735   0.459   5.094
  609ACOH    H413765   9.856   0.129   7.163
  609ACOH    O213766   9.874   0.225   7.143
  609ACOH    C213767   9.824   0.251   7.021
  609ACOH    O113768   9.776   0.169   6.944
  609ACOH    C113769   9.840   0.394   6.986
  609ACOH    H113770   9.802   0.413   6.885
  609ACOH    H213771   9.945   0.422   6.990
  609ACOH    H313772   9.784   0.455   7.056
  610ACOH    H413773   9.888   0.191   9.034
  610ACOH    O213774   9.884   0.286   9.004
  610ACOH    C213775   9.866   0.283   8.870
  610ACOH    O113776   9.897   0.190   8.798
  610ACOH    C113777   9.834   0.417   8.816
  610ACOH    H113778   9.840   0.418   8.708
  610ACOH    H213779   9.905   0.490   8.856
  610ACOH    H313780   9.734   0.445   8.847
  611ACOH    H413781   0.016   1.920   1.638
  611ACOH    O213782   9.983   2.014   1.635
  611ACOH    C213783   9.921   2.031   1.516
  611ACOH    O113784   9.908   1.947   1.429
  611ACOH    C113785   9.867   2.168   1.504
  611ACOH    H113786   9.816   2.181   1.409
  611ACOH    H213787   9.947   2.240   1.511
  611ACOH    H313788   9.796   2.186   1.585
  612ACOH    H413789   9.983   1.908   3.518
  612ACOH    O213790   9.943   1.999   3.512
  612ACOH    C213791   9.896   2.014   3.387
  612ACOH    O113792   9.895   1.930   3.299
  612ACOH    C113793   9.839   2.149   3.368
  612ACOH    H113794   9.799   2.161   3.268
  612ACOH    H213795   9.916   2.224   3.385
  612ACOH    H313796   9.759   2.165   3.440
  613ACOH    H413797   0.016   2.144   7.194
  613ACOH    O213798   9.935   2.195   7.165
  613ACOH    C213799   9.921   2.171   7.033
  613ACOH    O113800   9.983   2.090   6.967
  613ACOH    C113801   9.809   2.249   6.976
  613ACOH    H113802   9.728   2.182   6.947
  613ACOH    H213803   9.844   2.301   6.887
  613ACOH    H313804   9.771   2.322   7.047
  614ACOH    H413805   0.013   1.915   9.000
  614ACOH    O213806   9.977   2.007   8.985
  614ACOH    C213807   9.913   2.006   8.866
  614ACOH    O113808   9.915   1.915   8.785
  614ACOH    C113809   9.854   2.138   8.837
  614ACOH    H113810   9.827   2.146   8.732
  614ACOH    H213811   9.923   2.218   8.862
  614ACOH    H313812   9.764   2.151   8.896
  615ACOH    H413813   9.991   3.769   1.640
  615ACOH    O213814   9.960   3.864   1.633
  615ACOH    C213815   9.899   3.875   1.514
  615ACOH    O113816   9.874   3.784   1.436
  615ACOH    C113817   9.857   4.014   1.488
  615ACOH    H113818   9.808   4.023   1.391
  615ACOH    H213819   9.943   4.080   1.490
  615ACOH    H313820   9.787   4.045   1.565
  616ACOH    H413821   9.995   3.740   3.489
  616ACOH    O213822   9.957   3.832   3.485
  616ACOH    C213823   9.921   3.855   3.357
  616ACOH    O113824   9.947   3.785   3.261
  616ACOH    C113825   9.857   3.988   3.344
  616ACOH    H113826   9.834   4.010   3.240
  616ACOH    H213827   9.923   4.065   3.382
  616ACOH    H313828   9.765   3.990   3.401
  617ACOH    H413829   9.981   3.759   5.321
  617ACOH    O213830   9.948   3.853   5.319
  617ACOH    C213831   9.891   3.873   5.199
  617ACOH    O113832   9.876   3.789   5.112
  617ACOH    C113833   9.843   4.012   5.184
  617ACOH    H113834   9.797   4.027   5.087
  617ACOH    H213835   9.926   4.081   5.195
  617ACOH    H313836   9.769   4.033   5.261
  618ACOH    H413837   9.914   3.867   7.177
  618ACOH    O213838   9.902   3.959   7.138
  618ACOH    C213839   9.891   3.943   7.005
  618ACOH    O113840   9.935   3.849   6.941
  618ACOH    C113841   9.852   4.071   6.941
  618ACOH    H113842   9.865   4.066   6.833
  618ACOH    H213843   9.912   4.152   6.980
  618ACOH    H313844   9.747   4.091   6.962
  619ACOH    H413845   9.988   3.797   9.046
  619ACOH    O213846   9.970   3.894   9.036
  619ACOH    C213847   9.890   3.908   8.929
  619ACOH    O113848   9.854   3.819   8.854
  619ACOH    C113849   9.860   4.051   8.902
  619ACOH    H113850   9.815   4.063   8.804
  619ACOH    H213851   9.951   4.111   8.906
  619ACOH    H313852   9.790   4.088   8.976
  620ACOH    H413853   9.989   5.602   1.646
  620ACOH    O213854   9.955   5.695   1.641
  620ACOH    C213855   9.905   5.714   1.517
  620ACOH    O113856   9.913   5.636   1.424
  620ACOH    C113857   9.850   5.850   1.502
  620ACOH    H113858   9.821   5.869   1.398
  620ACOH    H213859   9.924   5.924   1.531
  620ACOH    H313860   9.762   5.861   1.565
  621ACOH    H413861   9.974   5.591   3.482
  621ACOH    O213862   9.941   5.685   3.479
  621ACOH    C213863   9.895   5.707   3.354
  621ACOH    O113864   9.893   5.626   3.263
  621ACOH    C113865   9.845   5.846   3.339
  621ACOH    H113866   9.815   5.864   3.236
  621ACOH    H213867   9.923   5.916   3.367
  621ACOH    H313868   9.759   5.860   3.403
  622ACOH    H413869   9.986   5.609   5.333
  622ACOH    O213870   9.948   5.702   5.333
  622ACOH    C213871   9.898   5.724   5.210
  622ACOH    O113872   9.915   5.655   5.112
  622ACOH    C113873   9.831   5.856   5.203
  622ACOH    H113874   9.800   5.879   5.102
  622ACOH    H213875   9.900   5.934   5.236
  622ACOH    H313876   9.744   5.857   5.268
  623ACOH    H413877   9.989   5.602   7.185
  623ACOH    O213878   9.954   5.695   7.182
  623ACOH    C213879   9.906   5.715   7.058
  623ACOH    O113880   9.901   5.634   6.968
  623ACOH    C113881   9.855   5.854   7.043
  623ACOH    H113882   9.822   5.871   6.940
  623ACOH    H213883   9.933   5.925   7.068
  623ACOH    H313884   9.770   5.868   7.109
  624ACOH    H413885  10.000   5.599   9.027
  624ACOH    O213886   9.963   5.691   9.028
  624ACOH    C213887   9.905   5.713   8.908
  624ACOH    O113888   9.903   5.635   8.815
  624ACOH    C113889   9.846   5.848   8.901
  624ACOH    H113890   9.806   5.867   8.802
  624ACOH    H213891   9.921   5.923   8.924
  624ACOH    H313892   9.765   5.856   8.974
  625ACOH    H413893   9.961   7.523   1.711
  625ACOH    O213894   9.954   7.614   1.670
  625ACOH    C213895   9.881   7.603   1.557
  625ACOH    O113896   9.849   7.500   1.502
  625ACOH    C113897   9.853   7.737   1.500
  625ACOH    H113898   9.801   7.728   1.405
  625ACOH    H213899   9.946   7.791   1.484
  625ACOH    H313900   9.790   7.794   1.569
  626ACOH    H413901   9.988   7.436   3.483
  626ACOH    O213902   9.944   7.525   3.479
  626ACOH    C213903   9.927   7.557   3.349
  626ACOH    O113904   9.998   7.519   3.258
  626ACOH    C113905   9.836   7.673   3.335
  626ACOH    H113906   9.835   7.710   3.233
  626ACOH    H213907   9.871   7.753   3.400
  626ACOH    H313908   9.736   7.645   3.364
  627ACOH    H413909   9.992   7.434   5.327
  627ACOH    O213910   9.955   7.526   5.321
  627ACOH    C213911   9.891   7.538   5.203
  627ACOH    O113912   9.890   7.456   5.113
  627ACOH    C113913   9.823   7.669   5.190
  627ACOH    H113914   9.773   7.678   5.094
  627ACOH    H213915   9.896   7.749   5.199
  627ACOH    H313916   9.750   7.680   5.270
  628ACOH    H413917   9.984   7.483   7.193
  628ACOH    O213918   9.953   7.577   7.175
  628ACOH    C213919   9.905   7.577   7.048
  628ACOH    O113920   9.912   7.484   6.970
  628ACOH    C113921   9.851   7.710   7.012
  628ACOH    H113922   9.822   7.712   6.908
  628ACOH    H213923   9.926   7.787   7.029
  628ACOH    H313924   9.764   7.732   7.073
  629ACOH    H413925   0.003   7.443   9.014
  629ACOH    O213926   9.967   7.536   9.013
  629ACOH    C213927   9.911   7.555   8.892
  629ACOH    O113928   9.915   7.479   8.798
  629ACOH    C113929   9.849   7.690   8.883
  629ACOH    H113930   9.812   7.708   8.782
  629ACOH    H213931   9.923   7.766   8.907
  629ACOH    H313932   9.766   7.697   8.953
  630ACOH    H413933   9.952   9.333   1.661
  630ACOH    O213934   9.918   9.425   1.651
  630ACOH    C213935   9.870   9.435   1.525
  630ACOH    O113936   9.866   9.346   1.442
  630ACOH    C113937   9.818   9.571   1.500
  630ACOH    H113938   9.780   9.579   1.398
  630ACOH    H213939   9.897   9.644   1.514
  630ACOH    H313940   9.737   9.593   1.569
  631ACOH    H413941   0.061   9.373   3.530
  631ACOH    O213942   0.025   9.460   3.498
  631ACOH    C213943   9.948   9.430   3.391
  631ACOH    O113944   9.905   9.320   3.362
  631ACOH    C113945   9.903   9.554   3.323
  631ACOH    H113946   9.832   9.531   3.244
  631ACOH    H213947   9.989   9.604   3.279
  631ACOH    H313948   9.856   9.621   3.394
  632ACOH    H413949   9.979   9.294   7.178
  632ACOH    O213950   9.949   9.389   7.169
  632ACOH    C213951   9.891   9.400   7.048
  632ACOH    O113952   9.882   9.314   6.964
  632ACOH    C113953   9.844   9.539   7.026
  632ACOH    H113954   9.803   9.550   6.926
  632ACOH    H213955   9.926   9.609   7.038
  632ACOH    H313956   9.766   9.563   7.098
  633SOL     OW13957   1.083   1.415   0.767
  633SOL    HW113958   1.173   1.454   0.786
  633SOL    HW213959   1.050   1.448   0.679
  634SOL     OW13960   1.597   1.292   0.590
  634SOL    HW113961   1.608   1.361   0.662
  634SOL    HW213962   1.686   1.257   0.563
  635SOL     OW13963   1.636   0.594   1.441
  635SOL    HW113964   1.545   0.570   1.474
  635SOL    HW213965   1.698   0.605   1.519
  636SOL     OW13966   0.347   0.280   9.966
  636SOL    HW113967   0.266   0.221   9.969
  636SOL    HW213968   0.375   0.294   9.871
  637SOL     OW13969   1.331   1.549   0.831
  637SOL    HW113970   1.332   1.647   0.849
  637SOL    HW213971   1.424   1.518   0.810
  638SOL     OW13972   1.256   9.958   1.383
  638SOL    HW113973   1.159   9.962   1.407
  638SOL    HW213974   1.266   9.933   1.287
  639SOL     OW13975   0.994   0.863   1.768
  639SOL    HW113976   0.988   0.796   1.694
  639SOL    HW213977   0.903   0.890   1.796
  640SOL     OW13978   0.498   1.509   0.493
  640SOL    HW113979   0.436   1.512   0.572
  640SOL    HW213980   0.589   1.537   0.523
  641SOL     OW13981   0.575   0.165   0.059
  641SOL    HW113982   0.657   0.218   0.038
  641SOL    HW213983   0.494   0.215   0.031
  642SOL     OW13984   1.598   1.081   1.550
  642SOL    HW113985   1.502   1.094   1.526
  642SOL    HW213986   1.656   1.125   1.481
  643SOL     OW13987   1.456   1.081   1.225
  643SOL    HW113988   1.400   1.073   1.307
  643SOL    HW213989   1.497   1.172   1.222
  644SOL     OW13990   1.017   1.362   1.486
  644SOL    HW113991   0.932   1.412   1.469
  644SOL    HW213992   1.019   1.280   1.429
  645SOL     OW13993   0.731   0.653   0.553
  645SOL    HW113994   0.758   0.723   0.486
  645SOL    HW213995   0.697   0.572   0.505
  646SOL     OW13996   1.324   0.532   1.811
  646SOL    HW113997   1.423   0.529   1.818
  646SOL    HW213998   1.285   0.455   1.862
  647SOL     OW13999   0.447   1.417   0.234
  647SOL    HW114000   0.508   1.484   0.191
  647SOL    HW214001   0.434   1.441   0.330
  648SOL     OW14002   0.771   0.344   1.061
  648SOL    HW114003   0.775   0.433   1.015
  648SOL    HW214004   0.756   0.273   0.993
  649SOL     OW14005   0.276   0.815   0.465
  649SOL    HW114006   0.302   0.819   0.562
  649SOL    HW214007   0.180   0.842   0.456
  650SOL     OW14008   0.736   1.613   0.580
  650SOL    HW114009   0.823   1.568   0.564
  650SOL    HW214010   0.741   1.708   0.550
  651SOL     OW14011   1.828   1.544   0.321
  651SOL    HW114012   1.919   1.513   0.349
  651SOL    HW214013   1.832   1.641   0.296
  652SOL     OW14014   1.694   0.345   1.117
  652SOL    HW114015   1.725   0.437   1.141
  652SOL    HW214016   1.594   0.343   1.117
  653SOL     OW14017   1.040   0.356   0.312
  653SOL    HW114018   1.101   0.429   0.343
  653SOL    HW214019   1.006   0.305   0.391
  654SOL     OW14020   0.219   1.048   1.583
  654SOL    HW114021   0.298   1.100   1.617
  654SOL    HW214022   0.160   1.023   1.660
  655SOL     OW14023   0.403   0.764   9.987
  655SOL    HW114024   0.459   0.843   0.011
  655SOL    HW214025   0.461   0.690   9.954
  656SOL     OW14026   0.616   1.571   0.828
  656SOL    HW114027   0.661   1.597   0.742
  656SOL    HW214028   0.520   1.547   0.809
  657SOL     OW14029   1.018   0.654   1.588
  657SOL    HW114030   1.026   0.567   1.636
  657SOL    HW214031   1.104   0.673   1.540
  658SOL     OW14032   1.617   1.472   0.807
  658SOL    HW114033   1.645   1.511   0.894
  658SOL    HW214034   1.661   1.522   0.732
  659SOL     OW14035   0.284   1.244   0.497
  659SOL    HW114036   0.304   1.236   0.595
  659SOL    HW214037   0.360   1.206   0.445
  660SOL     OW14038   1.161   0.197   0.126
  660SOL    HW114039   1.259   0.186   0.145
  660SOL    HW214040   1.121   0.258   0.194
  661SOL     OW14041   1.481   0.800   1.324
  661SOL    HW114042   1.507   0.894   1.301
  661SOL    HW214043   1.559   0.753   1.365
  662SOL     OW14044   0.409   0.274   0.420
  662SOL    HW114045   0.341   0.287   0.493
  662SOL    HW214046   0.380   0.324   0.339
  663SOL     OW14047   1.560   1.756   1.353
  663SOL    HW114048   1.488   1.763   1.284
  663SOL    HW214049   1.649   1.750   1.308
  664SOL     OW14050   1.758   0.598   1.194
  664SOL    HW114051   1.843   0.651   1.197
  664SOL    HW214052   1.717   0.598   1.285
  665SOL     OW14053   1.892   1.791   1.128
  665SOL    HW114054   1.895   1.804   1.227
  665SOL    HW214055   1.974   1.743   1.098
  666SOL     OW14056   0.924   0.511   0.697
  666SOL    HW114057   0.994   0.557   0.752
  666SOL    HW214058   0.867   0.580   0.652
  667SOL     OW14059   1.211   1.000   0.194
  667SOL    HW114060   1.243   0.932   0.259
  667SOL    HW214061   1.111   0.997   0.189
  668SOL     OW14062   0.998   0.435   1.766
  668SOL    HW114063   1.073   0.415   1.830
  668SOL    HW214064   0.931   0.360   1.770
  669SOL     OW14065   1.749   0.687   0.412
  669SOL    HW114066   1.700   0.600   0.423
  669SOL    HW214067   1.819   0.694   0.483
  670SOL     OW14068   1.002   1.813   0.121
  670SOL    HW114069   0.996   1.781   0.026
  670SOL    HW214070   1.033   1.737   0.179
  671SOL     OW14071   0.808   0.087   1.735
  671SOL    HW114072   0.867   0.007   1.725
  671SOL    HW214073   0.828   0.132   1.822
  672SOL     OW14074   1.696   0.683   0.939
  672SOL    HW114075   1.664   0.778   0.944
  672SOL    HW214076   1.710   0.648   1.032
  673SOL     OW14077   1.118   1.307   1.747
  673SOL    HW114078   1.156   1.216   1.736
  673SOL    HW214079   1.067   1.332   1.664
  674SOL     OW14080   0.791   1.137   1.739
  674SOL    HW114081   0.732   1.215   1.760
  674SOL    HW214082   0.765   1.059   1.796
  675SOL     OW14083   1.339   0.009   0.889
  675SOL    HW114084   1.305   0.103   0.900
  675SOL    HW214085   1.433   0.012   0.855
  676SOL     OW14086   1.736   0.241   1.786
  676SOL    HW114087   1.696   0.253   1.877
  676SOL    HW214088   1.710   0.152   1.749
  677SOL     OW14089   9.967   0.637   0.564
  677SOL    HW114090   0.044   0.600   0.616
  677SOL    HW214091   9.983   0.735   0.547
  678SOL     OW14092   1.115   0.874   0.955
  678SOL    HW114093   1.054   0.942   0.913
  678SOL    HW214094   1.105   0.787   0.907
  679SOL     OW14095   0.136   1.473   0.420
  679SOL    HW114096   0.195   1.395   0.439
  679SOL    HW214097   0.188   1.542   0.369
  680SOL     OW14098   1.479   1.366   1.246
  680SOL    HW114099   1.427   1.404   1.170
  680SOL    HW214100   1.424   1.366   1.329
  681SOL     OW14101   0.109   1.609   0.657
  681SOL    HW114102   0.093   1.706   0.635
  681SOL    HW214103   0.111   1.555   0.573
  682SOL     OW14104   1.746   1.431   1.268
  682SOL    HW114105   1.767   1.456   1.362
  682SOL    HW214106   1.649   1.410   1.260
  683SOL     OW14107   0.545   0.985   0.066
  683SOL    HW114108   0.513   1.076   0.039
  683SOL    HW214109   0.538   0.975   0.165
  684SOL     OW14110   1.016   1.142   1.325
  684SOL    HW114111   1.067   1.059   1.298
  684SOL    HW214112   0.956   1.169   1.250
  685SOL     OW14113   0.086   0.908   0.167
  685SOL    HW114114   0.148   0.830   0.172
  685SOL    HW214115   9.995   0.881   0.198
  686SOL     OW14116   1.571   0.897   0.409
  686SOL    HW114117   1.635   0.820   0.414
  686SOL    HW214118   1.590   0.952   0.328
  687SOL     OW14119   0.930   1.780   1.042
  687SOL    HW114120   0.925   1.698   0.986
  687SOL    HW214121   0.841   1.800   1.081
  688SOL     OW14122   0.811   0.941   9.999
  688SOL    HW114123   0.845   0.857   0.041
  688SOL    HW214124   0.714   0.952   0.019
  689SOL     OW14125   1.361   0.398   0.459
  689SOL    HW114126   1.316   0.462   0.396
  689SOL    HW214127   1.459   0.418   0.462
  690SOL     OW14128   0.262   0.548   1.492
  690SOL    HW114129   0.317   0.467   1.510
  690SOL    HW214130   0.209   0.571   1.574
  691SOL     OW14131   1.091   0.886   1.234
  691SOL    HW114132   1.103   0.878   1.135
  691SOL    HW214133   1.006   0.841   1.261
  692SOL     OW14134   1.638   0.439   0.487
  692SOL    HW114135   1.727   0.394   0.479
  692SOL    HW214136   1.622   0.463   0.583
  693SOL     OW14137   0.890   1.554   0.908
  693SOL    HW114138   0.953   1.493   0.860
  693SOL    HW214139   0.796   1.533   0.880
  694SOL     OW14140   0.803   0.473   0.243
  694SOL    HW114141   0.737   0.449   0.315
  694SOL    HW214142   0.890   0.427   0.261
  695SOL     OW14143   0.981   1.289   0.209
  695SOL    HW114144   1.024   1.279   0.299
  695SOL    HW214145   1.045   1.332   0.146
  696SOL     OW14146   1.753   1.580   0.595
  696SOL    HW114147   1.773   1.678   0.598
  696SOL    HW214148   1.755   1.548   0.500
  697SOL     OW14149   1.185   0.935   0.587
  697SOL    HW114150   1.233   0.974   0.665
  697SOL    HW214151   1.089   0.963   0.589
  698SOL     OW14152   0.880   1.621   1.644
  698SOL    HW114153   0.837   1.569   1.570
  698SOL    HW214154   0.876   1.569   1.729
  699SOL     OW14155   1.326   1.002   0.820
  699SOL    HW114156   1.270   0.934   0.867
  699SOL    HW214157   1.326   1.088   0.871
  700SOL     OW14158   0.330   1.223   0.770
  700SOL    HW114159   0.241   1.212   0.814
  700SOL    HW214160   0.396   1.160   0.812
  701SOL     OW14161   0.920   1.007   0.546
  701SOL    HW114162   0.890   0.937   0.482
  701SOL    HW214163   0.843   1.035   0.604
  702SOL     OW14164   1.290   1.381   1.446
  702SOL    HW114165   1.328   1.467   1.480
  702SOL    HW214166   1.190   1.383   1.457
  703SOL     OW14167   0.060   0.300   0.393
  703SOL    HW114168   0.062   0.210   0.349
  703SOL    HW214169   0.119   0.298   0.474
  704SOL     OW14170   1.607   1.828   0.218
  704SOL    HW114171   1.704   1.821   0.243
  704SOL    HW214172   1.596   1.809   0.121
  705SOL     OW14173   0.881   0.780   1.383
  705SOL    HW114174   0.862   0.867   1.428
  705SOL    HW214175   0.922   0.717   1.450
  706SOL     OW14176   0.197   1.808   1.391
  706SOL    HW114177   0.134   1.791   1.315
  706SOL    HW214178   0.154   1.779   1.477
  707SOL     OW14179   0.791   0.847   0.357
  707SOL    HW114180   0.692   0.857   0.347
  707SOL    HW214181   0.827   0.798   0.277
  708SOL     OW14182   0.351   0.625   0.893
  708SOL    HW114183   0.430   0.591   0.842
  708SOL    HW214184   0.372   0.627   0.991
  709SOL     OW14185   0.280   1.669   0.296
  709SOL    HW114186   0.309   1.702   0.207
  709SOL    HW214187   0.298   1.739   0.366
  710SOL     OW14188   1.355   1.773   1.174
  710SOL    HW114189   1.370   1.790   1.077
  710SOL    HW214190   1.271   1.721   1.187
  711SOL     OW14191   0.091   1.197   0.900
  711SOL    HW114192   9.995   1.210   0.873
  711SOL    HW214193   0.097   1.125   0.969
  712SOL     OW14194   0.770   9.992   0.390
  712SOL    HW114195   0.806   9.953   0.305
  712SOL    HW214196   0.671   0.004   0.383
  713SOL     OW14197   0.017   1.171   0.470
  713SOL    HW114198   0.111   1.197   0.493
  713SOL    HW214199   0.001   1.186   0.373
  714SOL     OW14200   1.529   0.305   1.581
  714SOL    HW114201   1.475   0.388   1.570
  714SOL    HW214202   1.595   0.318   1.655
  715SOL     OW14203   1.284   0.278   0.925
  715SOL    HW114204   1.296   0.345   0.852
  715SOL    HW214205   1.335   0.307   1.006
  716SOL     OW14206   1.432   0.109   0.160
  716SOL    HW114207   1.487   0.072   0.085
  716SOL    HW214208   1.396   0.033   0.215
  717SOL     OW14209   1.608   0.037   1.649
  717SOL    HW114210   1.640   9.982   1.572
  717SOL    HW214211   1.560   0.118   1.614
  718SOL     OW14212   0.745   0.312   0.696
  718SOL    HW114213   0.744   0.242   0.767
  718SOL    HW214214   0.820   0.376   0.713
  719SOL     OW14215   1.344   0.634   1.146
  719SOL    HW114216   1.345   0.682   1.058
  719SOL    HW214217   1.388   0.691   1.216
  720SOL     OW14218   1.536   0.001   0.517
  720SOL    HW114219   1.525   9.906   0.487
  720SOL    HW214220   1.451   0.051   0.502
  721SOL     OW14221   0.587   1.395   1.760
  721SOL    HW114222   0.546   1.468   1.705
  721SOL    HW214223   0.678   1.422   1.790
  722SOL     OW14224   0.455   1.158   1.686
  722SOL    HW114225   0.499   1.128   1.602
  722SOL    HW214226   0.490   1.248   1.711
  723SOL     OW14227   0.152   1.394   1.083
  723SOL    HW114228   0.138   1.327   1.010
  723SOL    HW214229   0.075   1.392   1.146
  724SOL     OW14230   1.129   0.620   0.849
  724SOL    HW114231   1.202   0.568   0.806
  724SOL    HW214232   1.108   0.580   0.938
  725SOL     OW14233   1.789   0.648   1.670
  725SOL    HW114234   1.783   0.735   1.623
  725SOL    HW214235   1.884   0.629   1.695
  726SOL     OW14236   1.422   0.368   1.144
  726SOL    HW114237   1.391   0.462   1.156
  726SOL    HW214238   1.397   0.314   1.225
  727SOL     OW14239   1.592   0.510   1.816
  727SOL    HW114240   1.667   0.557   1.768
  727SOL    HW214241   1.631   0.443   1.879
  728SOL     OW14242   1.308   0.824   0.378
  728SOL    HW114243   1.259   0.857   0.458
  728SOL    HW214244   1.405   0.844   0.387
  729SOL     OW14245   1.572   0.984   0.682
  729SOL    HW114246   1.562   0.962   0.585
  729SOL    HW214247   1.482   0.982   0.726
  730SOL     OW14248   1.781   0.875   1.520
  730SOL    HW114249   1.709   0.944   1.522
  730SOL    HW214250   1.871   0.920   1.521
  731SOL     OW14251   1.627   0.296   0.239
  731SOL    HW114252   1.616   0.348   0.324
  731SOL    HW214253   1.546   0.239   0.224
  732SOL     OW14254   0.767   1.491   1.436
  732SOL    HW114255   0.709   1.571   1.423
  732SOL    HW214256   0.728   1.413   1.388
  733SOL     OW14257   0.070   0.329   1.825
  733SOL    HW114258   0.116   0.241   1.811
  733SOL    HW214259   9.977   0.314   1.857
  734SOL     OW14260   0.092   1.776   1.660
  734SOL    HW114261   0.181   1.782   1.703
  734SOL    HW214262   0.040   1.700   1.699
  735SOL     OW14263   0.223   0.294   0.622
  735SOL    HW114264   0.195   0.382   0.659
  735SOL    HW214265   0.256   0.235   0.696
  736SOL     OW14266   1.406   1.609   1.531
  736SOL    HW114267   1.343   1.670   1.578
  736SOL    HW214268   1.463   1.661   1.468
  737SOL     OW14269   0.254   0.687   0.207
  737SOL    HW114270   0.321   0.719   0.140
  737SOL    HW214271   0.279   0.719   0.298
  738SOL     OW14272   1.728   0.250   1.383
  738SOL    HW114273   1.652   0.278   1.442
  738SOL    HW214274   1.705   0.270   1.287
  739SOL     OW14275   0.519   1.880   0.667
  739SOL    HW114276   0.436   1.863   0.614
  739SOL    HW214277   0.598   1.882   0.606
  740SOL     OW14278   0.386   1.325   1.217
  740SOL    HW114279   0.377   1.353   1.313
  740SOL    HW214280   0.306   1.358   1.166
  741SOL     OW14281   1.193   1.557   1.844
  741SOL    HW114282   1.169   1.466   1.811
  741SOL    HW214283   1.201   1.620   1.766
  742SOL     OW14284   0.321   0.849   0.735
  742SOL    HW114285   0.367   0.922   0.787
  742SOL    HW214286   0.318   0.766   0.790
  743SOL     OW14287   0.341   0.416   0.206
  743SOL    HW114288   0.339   0.375   0.115
  743SOL    HW214289   0.299   0.507   0.203
  744SOL     OW14290   0.140   0.517   0.746
  744SOL    HW114291   0.054   0.498   0.792
  744SOL    HW214292   0.203   0.560   0.811
  745SOL     OW14293   0.510   1.172   0.334
  745SOL    HW114294   0.608   1.158   0.322
  745SOL    HW214295   0.484   1.262   0.297
  746SOL     OW14296   1.153   0.631   0.019
  746SOL    HW114297   1.157   0.712   9.960
  746SOL    HW214298   1.228   0.570   9.996
  747SOL     OW14299   0.899   0.710   0.137
  747SOL    HW114300   0.990   0.688   0.102
  747SOL    HW214301   0.855   0.626   0.169
  748SOL     OW14302   1.299   0.128   0.473
  748SOL    HW114303   1.232   0.114   0.545
  748SOL    HW214304   1.318   0.226   0.463
  749SOL     OW14305   1.383   0.535   1.542
  749SOL    HW114306   1.357   0.544   1.639
  749SOL    HW214307   1.324   0.594   1.487
  750SOL     OW14308   0.190   0.051   0.055
  750SOL    HW114309   0.282   0.021   0.079
  750SOL    HW214310   0.134   0.058   0.137
  751SOL     OW14311   0.396   1.064   1.132
  751SOL    HW114312   0.391   1.006   1.214
  751SOL    HW214313   0.402   1.160   1.159
  752SOL     OW14314   1.648   1.018   0.175
  752SOL    HW114315   1.742   1.043   0.199
  752SOL    HW214316   1.647   0.983   0.081
  753SOL     OW14317   0.671   0.741   1.221
  753SOL    HW114318   0.753   0.751   1.277
  753SOL    HW214319   0.592   0.721   1.279
  754SOL     OW14320   0.850   1.018   1.505
  754SOL    HW114321   0.914   1.071   1.449
  754SOL    HW214322   0.838   1.063   1.593
  755SOL     OW14323   1.191   1.043   1.694
  755SOL    HW114324   1.109   0.990   1.718
  755SOL    HW214325   1.273   0.990   1.716
  756SOL     OW14326   1.107   0.103   0.657
  756SOL    HW114327   1.081   0.112   0.754
  756SOL    HW214328   1.032   0.136   0.600
  757SOL     OW14329   1.212   1.755   1.655
  757SOL    HW114330   1.142   1.766   1.584
  757SOL    HW214331   1.223   1.841   1.705
  758SOL     OW14332   0.711   0.127   0.894
  758SOL    HW114333   0.616   0.098   0.899
  758SOL    HW214334   0.771   0.052   0.924
  759SOL     OW14335   0.408   1.733   1.225
  759SOL    HW114336   0.361   1.695   1.146
  759SOL    HW214337   0.341   1.763   1.293
  760SOL     OW14338   1.031   1.175   0.909
  760SOL    HW114339   1.035   1.254   0.848
  760SOL    HW214340   1.118   1.166   0.958
  761SOL     OW14341   0.123   1.018   1.099
  761SOL    HW114342   0.221   1.031   1.113
  761SOL    HW214343   0.092   0.939   1.153
  762SOL     OW14344   0.235   9.939   0.483
  762SOL    HW114345   0.329   9.971   0.498
  762SOL    HW214346   0.177   9.972   0.558
  763SOL     OW14347   0.553   0.632   1.692
  763SOL    HW114348   0.558   0.679   1.604
  763SOL    HW214349   0.642   0.635   1.737
  764SOL     OW14350   0.019   1.168   0.182
  764SOL    HW114351   0.055   1.075   0.173
  764SOL    HW214352   0.091   1.234   0.160
  765SOL     OW14353   1.727   0.266   0.849
  765SOL    HW114354   1.713   0.283   0.947
  765SOL    HW214355   1.824   0.247   0.832
  766SOL     OW14356   0.845   1.189   1.118
  766SOL    HW114357   0.788   1.107   1.110
  766SOL    HW214358   0.905   1.194   1.038
  767SOL     OW14359   1.225   0.575   0.297
  767SOL    HW114360   1.254   0.664   0.332
  767SOL    HW214361   1.201   0.584   0.200
  768SOL     OW14362   1.572   1.461   1.688
  768SOL    HW114363   1.533   1.378   1.727
  768SOL    HW214364   1.503   1.508   1.633
  769SOL     OW14365   0.310   0.923   1.354
  769SOL    HW114366   0.237   0.855   1.342
  769SOL    HW214367   0.291   0.977   1.436
  770SOL     OW14368   0.750   1.418   0.123
  770SOL    HW114369   0.718   1.506   0.161
  770SOL    HW214370   0.834   1.390   0.169
  771SOL     OW14371   0.642   1.736   1.064
  771SOL    HW114372   0.634   1.663   0.996
  771SOL    HW214373   0.562   1.734   1.124
  772SOL     OW14374   0.976   1.490   0.520
  772SOL    HW114375   1.017   1.546   0.448
  772SOL    HW214376   0.994   1.393   0.500
  773SOL     OW14377   0.052   0.985   1.801
  773SOL    HW114378   0.006   0.905   1.762
  773SOL    HW214379   0.085   0.962   1.893
  774SOL     OW14380   1.015   1.782   1.461
  774SOL    HW114381   0.970   1.719   1.525
  774SOL    HW214382   0.948   1.846   1.425
  775SOL     OW14383   1.281   1.185   1.027
  775SOL    HW114384   1.274   1.282   1.049
  775SOL    HW214385   1.330   1.137   1.100
  776SOL     OW14386   0.448   0.387   1.640
  776SOL    HW114387   0.528   0.330   1.618
  776SOL    HW214388   0.479   0.479   1.664
  777SOL     OW14389   0.517   0.900   0.348
  777SOL    HW114390   0.509   0.998   0.362
  777SOL    HW214391   0.440   0.854   0.392
  778SOL     OW14392   1.610   0.955   1.022
  778SOL    HW114393   1.626   1.028   0.956
  778SOL    HW214394   1.540   0.984   1.087
  779SOL     OW14395   1.393   0.200   1.362
  779SOL    HW114396   1.427   0.235   1.450
  779SOL    HW214397   1.334   0.121   1.378
  780SOL     OW14398   0.036   0.053   0.635
  780SOL    HW114399   9.954   0.031   0.582
  780SOL    HW214400   0.033   0.150   0.661
  781SOL     OW14401   1.135   0.123   1.758
  781SOL    HW114402   1.154   0.192   1.828
  781SOL    HW214403   1.134   0.166   1.668
  782SOL     OW14404   0.472   1.607   1.629
  782SOL    HW114405   0.422   1.673   1.685
  782SOL    HW214406   0.523   1.656   1.558
  783SOL     OW14407   1.797   1.478   1.534
  783SOL    HW114408   1.845   1.560   1.565
  783SOL    HW214409   1.714   1.465   1.589
  784SOL     OW14410   1.076   0.552   1.111
  784SOL    HW114411   1.165   0.582   1.146
  784SOL    HW214412   1.050   0.466   1.154
  785SOL     OW14413   0.352   1.504   0.744
  785SOL    HW114414   0.343   1.405   0.759
  785SOL    HW214415   0.263   1.542   0.719
  786SOL     OW14416   1.113   1.656   1.210
  786SOL    HW114417   1.078   1.670   1.303
  786SOL    HW214418   1.050   1.698   1.145
  787SOL     OW14419   0.328   1.782   1.803
  787SOL    HW114420   0.353   1.877   1.821
  787SOL    HW214421   0.321   1.732   1.890
  788SOL     OW14422   0.115   1.380   1.613
  788SOL    HW114423   0.054   1.304   1.634
  788SOL    HW214424   0.065   1.450   1.561
  789SOL     OW14425   0.266   1.631   1.013
  789SOL    HW114426   0.226   1.543   1.039
  789SOL    HW214427   0.301   1.625   0.920
  790SOL     OW14428   1.039   0.157   0.918
  790SOL    HW114429   1.122   0.213   0.925
  790SOL    HW214430   1.015   0.122   1.008
  791SOL     OW14431   1.062   1.236   0.466
  791SOL    HW114432   1.154   1.239   0.504
  791SOL    HW214433   1.015   1.155   0.501
  792SOL     OW14434   1.605   0.493   0.755
  792SOL    HW114435   1.634   0.569   0.813
  792SOL    HW214436   1.650   0.409   0.785
  793SOL     OW14437   0.767   1.122   0.275
  793SOL    HW114438   0.844   1.182   0.250
  793SOL    HW214439   0.802   1.036   0.311
  794SOL     OW14440   0.892   0.110   0.019
  794SOL    HW114441   0.859   0.030   0.069
  794SOL    HW214442   0.966   0.153   0.070
  795SOL     OW14443   0.570   0.541   0.756
  795SOL    HW114444   0.614   0.452   0.758
  795SOL    HW214445   0.620   0.602   0.694
  796SOL     OW14446   0.587   1.091   1.461
  796SOL    HW114447   0.676   1.047   1.476
  796SOL    HW214448   0.599   1.168   1.398
  797SOL     OW14449   1.765   1.165   1.356
  797SOL    HW114450   1.773   1.257   1.318
  797SOL    HW214451   1.800   1.098   1.291
  798SOL     OW14452   0.215   1.339   0.100
  798SOL    HW114453   0.261   1.300   0.021
  798SOL    HW214454   0.283   1.380   0.161
  799SOL     OW14455   0.621   1.634   0.241
  799SOL    HW114456   0.636   1.732   0.228
  799SOL    HW214457   0.579   1.618   0.330
  800SOL     OW14458   1.336   1.116   1.470
  800SOL    HW114459   1.276   1.077   1.540
  800SOL    HW214460   1.317   1.214   1.460
  801SOL     OW14461   0.609   1.715   1.412
  801SOL    HW114462   0.668   1.795   1.400
  801SOL    HW214463   0.537   1.716   1.343
  802SOL     OW14464   0.147   0.579   1.738
  802SOL    HW114465   0.120   0.490   1.774
  802SOL    HW214466   0.214   0.621   1.799
  803SOL     OW14467   1.717   1.585   1.036
  803SOL    HW114468   1.770   1.669   1.052
  803SOL    HW214469   1.725   1.525   1.116
  804SOL     OW14470   0.006   0.894   0.477
  804SOL    HW114471   0.016   0.993   0.492
  804SOL    HW214472   9.938   0.878   0.406
  805SOL     OW14473   0.477   0.713   1.423
  805SOL    HW114474   0.403   0.650   1.443
  805SOL    HW214475   0.440   0.804   1.404
  806SOL     OW14476   1.665   1.181   0.863
  806SOL    HW114477   1.637   1.277   0.857
  806SOL    HW214478   1.631   1.132   0.783
  807SOL     OW14479   0.817   0.618   1.016
  807SOL    HW114480   0.909   0.603   1.052
  807SOL    HW214481   0.759   0.656   1.087
  808SOL     OW14482   0.653   1.296   1.286
  808SOL    HW114483   0.564   1.313   1.244
  808SOL    HW214484   0.718   1.267   1.215
  809SOL     OW14485   0.351   1.409   1.474
  809SOL    HW114486   0.399   1.481   1.523
  809SOL    HW214487   0.265   1.387   1.521
  810SOL     OW14488   1.665   1.701   1.799
  810SOL    HW114489   1.633   1.609   1.776
  810SOL    HW214490   1.626   1.767   1.735
  811SOL     OW14491   1.329   1.257   0.529
  811SOL    HW114492   1.419   1.268   0.572
  811SOL    HW214493   1.340   1.234   0.433
  812SOL     OW14494   0.645   0.408   0.458
  812SOL    HW114495   0.558   0.364   0.435
  812SOL    HW214496   0.681   0.369   0.543
  813SOL     OW14497   1.592   0.035   0.785
  813SOL    HW114498   1.578   0.027   0.687
  813SOL    HW214499   1.637   0.122   0.805
  814SOL     OW14500   1.231   0.741   1.427
  814SOL    HW114501   1.325   0.773   1.416
  814SOL    HW214502   1.171   0.790   1.364
  815SOL     OW14503   1.273   1.453   1.081
  815SOL    HW114504   1.207   1.510   1.131
  815SOL    HW214505   1.287   1.491   0.990
  816SOL     OW14506   1.332   0.468   0.733
  816SOL    HW114507   1.317   0.440   0.638
  816SOL    HW214508   1.430   0.486   0.746
  817SOL     OW14509   1.079   1.461   2.596
  817SOL    HW114510   1.174   1.492   2.600
  817SOL    HW214511   1.041   1.481   2.506
  818SOL     OW14512   1.634   1.268   2.418
  818SOL    HW114513   1.636   1.325   2.500
  818SOL    HW214514   1.727   1.236   2.397
  819SOL     OW14515   0.375   0.253   1.868
  819SOL    HW114516   0.310   0.180   1.847
  819SOL    HW214517   0.393   0.308   1.786
  820SOL     OW14518   1.345   1.543   2.647
  820SOL    HW114519   1.358   1.639   2.671
  820SOL    HW214520   1.434   1.503   2.622
  821SOL     OW14521   1.154   0.129   3.225
  821SOL    HW114522   1.120   0.058   3.286
  821SOL    HW214523   1.107   0.124   3.137
  822SOL     OW14524   1.005   0.875   3.608
  822SOL    HW114525   1.007   0.846   3.513
  822SOL    HW214526   0.911   0.898   3.634
  823SOL     OW14527   0.604   1.484   2.263
  823SOL    HW114528   0.567   1.528   2.345
  823SOL    HW214529   0.667   1.412   2.290
  824SOL     OW14530   0.581   0.136   1.999
  824SOL    HW114531   0.667   0.183   1.977
  824SOL    HW214532   0.505   0.183   1.955
  825SOL     OW14533   1.562   1.089   3.385
  825SOL    HW114534   1.469   1.101   3.350
  825SOL    HW214535   1.626   1.084   3.308
  826SOL     OW14536   1.406   1.057   3.034
  826SOL    HW114537   1.362   1.075   3.122
  826SOL    HW214538   1.473   1.129   3.015
  827SOL     OW14539   0.997   1.354   3.297
  827SOL    HW114540   0.910   1.403   3.289
  827SOL    HW214541   0.993   1.270   3.242
  828SOL     OW14542   0.497   1.242   2.560
  828SOL    HW114543   0.440   1.190   2.624
  828SOL    HW214544   0.593   1.213   2.571
  829SOL     OW14545   0.446   1.389   1.994
  829SOL    HW114546   0.498   1.395   1.908
  829SOL    HW214547   0.475   1.462   2.055
  830SOL     OW14548   0.569   0.313   2.840
  830SOL    HW114549   0.636   0.387   2.849
  830SOL    HW214550   0.617   0.227   2.824
  831SOL     OW14551   0.270   0.834   2.319
  831SOL    HW114552   0.314   0.832   2.409
  831SOL    HW214553   0.174   0.859   2.329
  832SOL     OW14554   0.798   1.722   2.438
  832SOL    HW114555   0.857   1.650   2.403
  832SOL    HW214556   0.801   1.800   2.375
  833SOL     OW14557   1.764   1.626   2.253
  833SOL    HW114558   1.855   1.593   2.229
  833SOL    HW214559   1.728   1.682   2.178
  834SOL     OW14560   1.075   0.424   2.171
  834SOL    HW114561   1.127   0.504   2.200
  834SOL    HW214562   1.052   0.368   2.251
  835SOL     OW14563   0.234   1.042   3.442
  835SOL    HW114564   0.311   1.099   3.470
  835SOL    HW214565   0.188   1.005   3.523
  836SOL     OW14566   0.363   0.719   1.872
  836SOL    HW114567   0.384   0.816   1.881
  836SOL    HW214568   0.428   0.677   1.808
  837SOL     OW14569   0.653   1.637   2.648
  837SOL    HW114570   0.707   1.681   2.576
  837SOL    HW214571   0.578   1.585   2.607
  838SOL     OW14572   0.884   0.614   3.443
  838SOL    HW114573   0.914   0.538   3.501
  838SOL    HW214574   0.963   0.663   3.407
  839SOL     OW14575   1.626   1.428   2.653
  839SOL    HW114576   1.613   1.462   2.746
  839SOL    HW214577   1.677   1.496   2.599
  840SOL     OW14578   0.363   1.256   2.319
  840SOL    HW114579   0.414   1.248   2.405
  840SOL    HW214580   0.418   1.218   2.245
  841SOL     OW14581   1.204   0.321   1.951
  841SOL    HW114582   1.279   0.264   1.984
  841SOL    HW214583   1.152   0.355   2.029
  842SOL     OW14584   0.370   0.611   3.100
  842SOL    HW114585   0.376   0.514   3.080
  842SOL    HW214586   0.313   0.657   3.032
  843SOL     OW14587   1.350   0.776   3.097
  843SOL    HW114588   1.363   0.875   3.105
  843SOL    HW214589   1.345   0.735   3.188
  844SOL     OW14590   0.420   0.383   2.338
  844SOL    HW114591   0.355   0.356   2.409
  844SOL    HW214592   0.377   0.376   2.249
  845SOL     OW14593   1.549   1.745   3.171
  845SOL    HW114594   1.473   1.754   3.107
  845SOL    HW214595   1.634   1.736   3.120
  846SOL     OW14596   1.806   0.445   2.842
  846SOL    HW114597   1.872   0.481   2.775
  846SOL    HW214598   1.853   0.430   2.929
  847SOL     OW14599   1.788   1.712   3.031
  847SOL    HW114600   1.833   1.744   3.114
  847SOL    HW214601   1.855   1.700   2.959
  848SOL     OW14602   1.276   0.985   2.035
  848SOL    HW114603   1.272   0.963   2.133
  848SOL    HW214604   1.242   0.907   1.982
  849SOL     OW14605   0.967   0.423   3.624
  849SOL    HW114606   1.041   0.374   3.670
  849SOL    HW214607   0.884   0.368   3.627
  850SOL     OW14608   1.718   0.712   2.195
  850SOL    HW114609   1.682   0.628   2.155
  850SOL    HW214610   1.760   0.691   2.284
  851SOL     OW14611   1.006   1.711   1.990
  851SOL    HW114612   1.052   1.659   1.919
  851SOL    HW214613   1.031   1.675   2.080
  852SOL     OW14614   0.749   0.044   3.538
  852SOL    HW114615   0.728   9.947   3.526
  852SOL    HW214616   0.772   0.061   3.634
  853SOL     OW14617   1.593   0.629   2.816
  853SOL    HW114618   1.608   0.727   2.830
  853SOL    HW214619   1.676   0.578   2.839
  854SOL     OW14620   1.112   1.328   3.573
  854SOL    HW114621   1.159   1.239   3.564
  854SOL    HW214622   1.054   1.342   3.492
  855SOL     OW14623   0.797   1.144   3.582
  855SOL    HW114624   0.752   1.231   3.603
  855SOL    HW214625   0.777   1.077   3.654
  856SOL     OW14626   1.165   9.910   2.578
  856SOL    HW114627   1.187   0.007   2.567
  856SOL    HW214628   1.244   9.855   2.552
  857SOL     OW14629   9.988   0.651   2.463
  857SOL    HW114630   0.051   0.612   2.530
  857SOL    HW214631   0.008   0.748   2.452
  858SOL     OW14632   0.354   0.146   2.711
  858SOL    HW114633   0.426   0.201   2.753
  858SOL    HW214634   0.380   0.050   2.712
  859SOL     OW14635   0.375   0.351   3.029
  859SOL    HW114636   0.288   0.308   3.008
  859SOL    HW214637   0.445   0.318   2.965
  860SOL     OW14638   0.274   1.526   2.295
  860SOL    HW114639   0.293   1.429   2.281
  860SOL    HW214640   0.300   1.578   2.214
  861SOL     OW14641   1.462   1.369   3.065
  861SOL    HW114642   1.403   1.371   2.984
  861SOL    HW214643   1.406   1.373   3.148
  862SOL     OW14644   0.096   1.664   2.467
  862SOL    HW114645   0.071   1.755   2.435
  862SOL    HW214646   0.151   1.618   2.397
  863SOL     OW14647   1.745   1.356   3.138
  863SOL    HW114648   1.770   1.381   3.231
  863SOL    HW214649   1.647   1.367   3.125
  864SOL     OW14650   0.460   0.978   1.893
  864SOL    HW114651   0.450   1.036   1.812
  864SOL    HW214652   0.470   1.035   1.974
  865SOL     OW14653   0.971   1.120   3.141
  865SOL    HW114654   1.015   1.033   3.120
  865SOL    HW214655   0.912   1.148   3.065
  866SOL     OW14656   0.117   0.927   2.064
  866SOL    HW114657   0.201   0.914   2.118
  866SOL    HW214658   0.054   0.852   2.083
  867SOL     OW14659   1.571   0.940   2.253
  867SOL    HW114660   1.623   0.856   2.236
  867SOL    HW214661   1.599   1.010   2.188
  868SOL     OW14662   0.921   1.757   2.935
  868SOL    HW114663   0.913   1.681   2.872
  868SOL    HW214664   0.830   1.787   2.964
  869SOL     OW14665   0.727   0.894   1.859
  869SOL    HW114666   0.743   0.796   1.867
  869SOL    HW214667   0.629   0.912   1.875
  870SOL     OW14668   1.386   0.438   2.277
  870SOL    HW114669   1.348   0.519   2.232
  870SOL    HW214670   1.486   0.444   2.276
  871SOL     OW14671   0.147   0.673   3.268
  871SOL    HW114672   0.224   0.626   3.224
  871SOL    HW214673   0.153   0.660   3.367
  872SOL     OW14674   0.243   0.249   3.264
  872SOL    HW114675   0.333   0.271   3.228
  872SOL    HW214676   0.175   0.261   3.192
  873SOL     OW14677   1.010   0.842   3.090
  873SOL    HW114678   1.039   0.771   3.026
  873SOL    HW214679   0.920   0.818   3.127
  874SOL     OW14680   1.664   0.437   2.290
  874SOL    HW114681   1.742   0.375   2.290
  874SOL    HW214682   1.678   0.509   2.358
  875SOL     OW14683   0.888   1.554   2.769
  875SOL    HW114684   0.957   1.519   2.706
  875SOL    HW214685   0.802   1.569   2.720
  876SOL     OW14686   0.821   0.479   2.081
  876SOL    HW114687   0.761   0.448   2.155
  876SOL    HW214688   0.916   0.478   2.112
  877SOL     OW14689   0.983   1.278   1.998
  877SOL    HW114690   1.041   1.273   2.079
  877SOL    HW214691   1.041   1.277   1.916
  878SOL     OW14692   1.750   1.631   2.523
  878SOL    HW114693   1.707   1.716   2.554
  878SOL    HW214694   1.748   1.627   2.423
  879SOL     OW14695   0.862   1.626   3.475
  879SOL    HW114696   0.819   1.572   3.403
  879SOL    HW214697   0.861   1.574   3.560
  880SOL     OW14698   1.278   0.942   2.580
  880SOL    HW114699   1.237   0.854   2.605
  880SOL    HW214700   1.256   1.010   2.650
  881SOL     OW14701   0.334   1.091   2.725
  881SOL    HW114702   0.245   1.133   2.710
  881SOL    HW214703   0.347   1.074   2.822
  882SOL     OW14704   1.269   1.383   3.263
  882SOL    HW114705   1.312   1.463   3.305
  882SOL    HW214706   1.171   1.384   3.283
  883SOL     OW14707   0.110   0.249   2.287
  883SOL    HW114708   0.162   0.293   2.213
  883SOL    HW214709   0.147   0.278   2.375
  884SOL     OW14710   1.680   1.806   2.057
  884SOL    HW114711   1.764   1.860   2.052
  884SOL    HW214712   1.663   1.763   1.969
  885SOL     OW14713   0.787   0.769   3.229
  885SOL    HW114714   0.792   0.856   3.278
  885SOL    HW214715   0.807   0.694   3.293
  886SOL     OW14716   0.169   1.806   3.275
  886SOL    HW114717   0.089   1.844   3.228
  886SOL    HW214718   0.142   1.778   3.367
  887SOL     OW14719   0.399   0.552   2.741
  887SOL    HW114720   0.462   0.541   2.664
  887SOL    HW214721   0.431   0.496   2.818
  888SOL     OW14722   0.353   1.703   2.083
  888SOL    HW114723   0.439   1.748   2.062
  888SOL    HW214724   0.295   1.765   2.136
  889SOL     OW14725   1.338   1.753   2.996
  889SOL    HW114726   1.365   1.766   2.900
  889SOL    HW214727   1.266   1.683   3.001
  890SOL     OW14728   0.081   1.206   2.748
  890SOL    HW114729   0.005   1.220   2.685
  890SOL    HW214730   0.048   1.155   2.828
  891SOL     OW14731   0.844   0.065   2.187
  891SOL    HW114732   0.861   9.974   2.148
  891SOL    HW214733   0.751   0.068   2.224
  892SOL     OW14734   0.107   1.164   2.328
  892SOL    HW114735   0.200   1.200   2.337
  892SOL    HW214736   0.071   1.183   2.237
  893SOL     OW14737   0.760   0.283   2.550
  893SOL    HW114738   0.691   0.213   2.569
  893SOL    HW214739   0.830   0.279   2.621
  894SOL     OW14740   1.322   0.626   2.880
  894SOL    HW114741   1.415   0.620   2.843
  894SOL    HW214742   1.322   0.685   2.961
  895SOL     OW14743   0.583   1.409   3.613
  895SOL    HW114744   0.541   1.480   3.557
  895SOL    HW214745   0.674   1.438   3.642
  896SOL     OW14746   0.465   1.172   3.528
  896SOL    HW114747   0.509   1.147   3.441
  896SOL    HW214748   0.497   1.262   3.556
  897SOL     OW14749   0.163   1.422   2.912
  897SOL    HW114750   0.151   1.354   2.841
  897SOL    HW214751   0.077   1.436   2.961
  898SOL     OW14752   1.182   0.686   2.647
  898SOL    HW114753   1.199   0.609   2.586
  898SOL    HW214754   1.229   0.670   2.734
  899SOL     OW14755   1.306   0.363   2.971
  899SOL    HW114756   1.311   0.457   2.937
  899SOL    HW214757   1.302   0.363   3.070
  900SOL     OW14758   1.305   0.893   2.300
  900SOL    HW114759   1.282   0.918   2.394
  900SOL    HW214760   1.401   0.913   2.283
  901SOL     OW14761   1.547   0.977   2.524
  901SOL    HW114762   1.553   0.981   2.424
  901SOL    HW214763   1.451   0.963   2.550
  902SOL     OW14764   1.614   0.297   2.022
  902SOL    HW114765   1.619   0.329   2.117
  902SOL    HW214766   1.558   0.214   2.018
  903SOL     OW14767   0.749   1.487   3.265
  903SOL    HW114768   0.691   1.567   3.254
  903SOL    HW214769   0.712   1.411   3.211
  904SOL     OW14770   0.174   0.355   3.505
  904SOL    HW114771   0.207   0.317   3.419
  904SOL    HW214772   0.077   0.331   3.516
  905SOL     OW14773   0.073   1.771   3.542
  905SOL    HW114774   0.167   1.781   3.577
  905SOL    HW214775   0.027   1.699   3.592
  906SOL     OW14776   0.234   0.313   2.525
  906SOL    HW114777   0.190   0.388   2.574
  906SOL    HW214778   0.277   0.251   2.590
  907SOL     OW14779   1.408   1.595   3.356
  907SOL    HW114780   1.344   1.660   3.399
  907SOL    HW214781   1.463   1.644   3.288
  908SOL     OW14782   0.257   0.635   2.108
  908SOL    HW114783   0.301   0.667   2.024
  908SOL    HW214784   0.285   0.693   2.185
  909SOL     OW14785   0.321   1.726   2.625
  909SOL    HW114786   0.231   1.721   2.582
  909SOL    HW214787   0.380   1.655   2.588
  910SOL     OW14788   0.373   1.332   3.073
  910SOL    HW114789   0.360   1.361   3.168
  910SOL    HW214790   0.304   1.375   3.015
  911SOL     OW14791   1.186   1.578   3.671
  911SOL    HW114792   1.161   1.486   3.640
  911SOL    HW214793   1.201   1.637   3.592
  912SOL     OW14794   0.773   1.283   2.349
  912SOL    HW114795   0.781   1.224   2.269
  912SOL    HW214796   0.767   1.226   2.432
  913SOL     OW14797   0.362   0.852   2.580
  913SOL    HW114798   0.370   0.940   2.626
  913SOL    HW214799   0.420   0.785   2.626
  914SOL     OW14800   0.280   0.364   2.105
  914SOL    HW114801   0.309   0.326   2.017
  914SOL    HW214802   0.265   0.462   2.096
  915SOL     OW14803   0.137   0.525   2.670
  915SOL    HW114804   0.079   0.526   2.752
  915SOL    HW214805   0.231   0.548   2.696
  916SOL     OW14806   0.516   1.152   2.106
  916SOL    HW114807   0.616   1.148   2.110
  916SOL    HW214808   0.487   1.237   2.063
  917SOL     OW14809   1.184   0.744   1.926
  917SOL    HW114810   1.111   0.787   1.872
  917SOL    HW214811   1.233   0.679   1.868
  918SOL     OW14812   0.786   0.622   1.847
  918SOL    HW114813   0.865   0.586   1.797
  918SOL    HW214814   0.783   0.581   1.938
  919SOL     OW14815   1.292   0.184   2.300
  919SOL    HW114816   1.255   0.175   2.392
  919SOL    HW214817   1.327   0.277   2.286
  920SOL     OW14818   1.321   0.622   3.328
  920SOL    HW114819   1.375   0.632   3.411
  920SOL    HW214820   1.316   0.525   3.303
  921SOL     OW14821   0.188   0.057   1.829
  921SOL    HW114822   0.224   9.969   1.797
  921SOL    HW214823   0.159   0.048   1.924
  922SOL     OW14824   0.308   1.076   3.001
  922SOL    HW114825   0.311   1.014   3.079
  922SOL    HW214826   0.340   1.166   3.029
  923SOL     OW14827   1.676   1.086   2.048
  923SOL    HW114828   1.774   1.099   2.064
  923SOL    HW214829   1.660   1.070   1.950
  924SOL     OW14830   0.624   0.710   3.017
  924SOL    HW114831   0.680   0.738   3.095
  924SOL    HW214832   0.532   0.686   3.049
  925SOL     OW14833   0.845   1.006   3.356
  925SOL    HW114834   0.902   1.053   3.289
  925SOL    HW214835   0.840   1.060   3.440
  926SOL     OW14836   1.188   1.062   3.521
  926SOL    HW114837   1.109   1.008   3.550
  926SOL    HW214838   1.272   1.014   3.544
  927SOL     OW14839   1.165   0.198   2.550
  927SOL    HW114840   1.212   0.285   2.564
  927SOL    HW214841   1.093   0.209   2.481
  928SOL     OW14842   1.224   1.757   3.469
  928SOL    HW114843   1.148   1.780   3.408
  928SOL    HW214844   1.262   1.841   3.507
  929SOL     OW14845   0.702   0.087   2.784
  929SOL    HW114846   0.693   0.006   2.842
  929SOL    HW214847   0.799   0.105   2.767
  930SOL     OW14848   0.381   1.802   3.106
  930SOL    HW114849   0.347   1.753   3.025
  930SOL    HW214850   0.309   1.805   3.175
  931SOL     OW14851   0.991   1.226   2.709
  931SOL    HW114852   1.021   1.313   2.669
  931SOL    HW214853   1.070   1.175   2.741
  932SOL     OW14854   0.749   0.919   2.790
  932SOL    HW114855   0.822   0.867   2.746
  932SOL    HW214856   0.699   0.860   2.853
  933SOL     OW14857   0.027   1.083   2.993
  933SOL    HW114858   0.127   1.082   3.001
  933SOL    HW214859   9.989   1.004   3.042
  934SOL     OW14860   0.291   9.983   2.271
  934SOL    HW114861   0.246   9.989   2.360
  934SOL    HW214862   0.226   0.009   2.200
  935SOL     OW14863   0.625   0.671   3.521
  935SOL    HW114864   0.584   0.733   3.454
  935SOL    HW214865   0.721   0.657   3.498
  936SOL     OW14866   0.045   1.195   2.060
  936SOL    HW114867   0.080   1.102   2.047
  936SOL    HW214868   0.093   1.257   1.997
  937SOL     OW14869   0.811   1.164   2.917
  937SOL    HW114870   0.782   1.075   2.880
  937SOL    HW214871   0.870   1.210   2.851
  938SOL     OW14872   1.246   0.652   2.177
  938SOL    HW114873   1.262   0.734   2.233
  938SOL    HW214874   1.220   0.681   2.085
  939SOL     OW14875   1.560   1.456   3.534
  939SOL    HW114876   1.516   1.374   3.572
  939SOL    HW214877   1.499   1.499   3.467
  940SOL     OW14878   0.267   0.907   3.209
  940SOL    HW114879   0.217   0.822   3.226
  940SOL    HW214880   0.263   0.965   3.290
  941SOL     OW14881   0.828   1.468   1.866
  941SOL    HW114882   0.781   1.527   1.932
  941SOL    HW214883   0.884   1.401   1.915
  942SOL     OW14884   0.631   1.773   2.890
  942SOL    HW114885   0.635   1.715   2.808
  942SOL    HW214886   0.547   1.753   2.940
  943SOL     OW14887   0.756   1.136   2.595
  943SOL    HW114888   0.841   1.177   2.627
  943SOL    HW214889   0.736   1.054   2.648
  944SOL     OW14890   0.950   1.502   2.358
  944SOL    HW114891   1.021   1.504   2.287
  944SOL    HW214892   0.893   1.421   2.346
  945SOL     OW14893   0.113   0.848   2.698
  945SOL    HW114894   0.201   0.842   2.651
  945SOL    HW214895   0.047   0.895   2.640
  946SOL     OW14896   0.099   0.959   3.662
  946SOL    HW114897   9.999   0.966   3.660
  946SOL    HW214898   0.129   0.945   3.756
  947SOL     OW14899   1.002   1.794   3.307
  947SOL    HW114900   0.959   1.727   3.368
  947SOL    HW214901   0.931   1.850   3.265
  948SOL     OW14902   1.237   1.127   2.805
  948SOL    HW114903   1.250   1.225   2.819
  948SOL    HW214904   1.283   1.077   2.879
  949SOL     OW14905   0.577   0.418   3.611
  949SOL    HW114906   0.634   0.363   3.550
  949SOL    HW214907   0.590   0.515   3.590
  950SOL     OW14908   0.533   0.905   2.237
  950SOL    HW114909   0.522   0.994   2.192
  950SOL    HW214910   0.444   0.871   2.266
  951SOL     OW14911   1.631   0.913   2.884
  951SOL    HW114912   1.635   0.993   2.824
  951SOL    HW214913   1.552   0.921   2.945
  952SOL     OW14914   1.317   0.348   3.251
  952SOL    HW114915   1.405   0.305   3.270
  952SOL    HW214916   1.245   0.278   3.249
  953SOL     OW14917   9.999   0.065   2.459
  953SOL    HW114918   9.911   0.027   2.432
  953SOL    HW214919   0.029   0.132   2.391
  954SOL     OW14920   1.157   0.049   3.621
  954SOL    HW114921   1.247   0.050   3.664
  954SOL    HW214922   1.109   0.135   3.639
  955SOL     OW14923   0.465   1.612   3.474
  955SOL    HW114924   0.415   1.679   3.529
  955SOL    HW214925   0.514   1.659   3.401
  956SOL     OW14926   1.800   1.422   3.403
  956SOL    HW114927   1.850   1.508   3.420
  956SOL    HW214928   1.713   1.424   3.452
  957SOL     OW14929   1.043   0.595   2.951
  957SOL    HW114930   1.137   0.595   2.917
  957SOL    HW214931   1.025   0.508   2.997
  958SOL     OW14932   0.449   1.510   2.510
  958SOL    HW114933   0.465   1.415   2.535
  958SOL    HW214934   0.381   1.515   2.437
  959SOL     OW14935   1.122   1.584   3.024
  959SOL    HW114936   1.090   1.534   3.105
  959SOL    HW214937   1.052   1.647   2.994
  960SOL     OW14938   0.328   1.790   3.647
  960SOL    HW114939   0.351   1.886   3.659
  960SOL    HW214940   0.328   1.744   3.736
  961SOL     OW14941   0.089   1.390   3.460
  961SOL    HW114942   0.028   1.321   3.499
  961SOL    HW214943   0.038   1.447   3.396
  962SOL     OW14944   0.286   1.672   2.889
  962SOL    HW114945   0.245   1.581   2.896
  962SOL    HW214946   0.302   1.695   2.793
  963SOL     OW14947   0.956   0.198   2.738
  963SOL    HW114948   1.038   0.194   2.680
  963SOL    HW214949   0.982   0.192   2.834
  964SOL     OW14950   1.106   1.236   2.246
  964SOL    HW114951   1.198   1.260   2.278
  964SOL    HW214952   1.066   1.167   2.306
  965SOL     OW14953   0.786   1.127   2.124
  965SOL    HW114954   0.857   1.171   2.069
  965SOL    HW214955   0.815   1.035   2.149
  966SOL     OW14956   0.842   0.232   1.966
  966SOL    HW114957   0.862   0.173   2.044
  966SOL    HW214958   0.835   0.327   1.997
  967SOL     OW14959   0.571   0.503   2.540
  967SOL    HW114960   0.648   0.440   2.553
  967SOL    HW214961   0.520   0.477   2.458
  968SOL     OW14962   0.595   1.098   3.300
  968SOL    HW114963   0.687   1.063   3.321
  968SOL    HW214964   0.601   1.168   3.230
  969SOL     OW14965   1.710   1.084   3.151
  969SOL    HW114966   1.740   1.178   3.140
  969SOL    HW214967   1.732   1.032   3.069
  970SOL     OW14968   0.185   1.365   1.890
  970SOL    HW114969   0.186   1.365   1.790
  970SOL    HW214970   0.279   1.375   1.924
  971SOL     OW14971   0.672   1.612   2.033
  971SOL    HW114972   0.637   1.705   2.028
  971SOL    HW214973   0.654   1.574   2.124
  972SOL     OW14974   1.307   1.117   3.280
  972SOL    HW114975   1.253   1.084   3.358
  972SOL    HW214976   1.293   1.215   3.269
  973SOL     OW14977   0.597   1.721   3.254
  973SOL    HW114978   0.663   1.796   3.247
  973SOL    HW214979   0.517   1.742   3.198
  974SOL     OW14980   0.182   0.630   3.536
  974SOL    HW114981   0.191   0.531   3.538
  974SOL    HW214982   0.257   0.671   3.588
  975SOL     OW14983   1.610   1.536   2.899
  975SOL    HW114984   1.671   1.601   2.944
  975SOL    HW214985   1.558   1.485   2.968
  976SOL     OW14986   0.008   0.924   2.406
  976SOL    HW114987   0.051   1.013   2.390
  976SOL    HW214988   9.914   0.926   2.371
  977SOL     OW14989   0.507   0.840   3.346
  977SOL    HW114990   0.428   0.824   3.288
  977SOL    HW214991   0.538   0.935   3.335
  978SOL     OW14992   1.623   1.143   2.729
  978SOL    HW114993   1.622   1.241   2.709
  978SOL    HW214994   1.595   1.092   2.648
  979SOL     OW14995   0.763   0.512   2.889
  979SOL    HW114996   0.855   0.547   2.874
  979SOL    HW214997   0.706   0.584   2.931
  980SOL     OW14998   0.644   1.287   3.107
  980SOL    HW114999   0.551   1.308   3.077
  980SOL    HW215000   0.696   1.251   3.029
  981SOL     OW15001   0.192   0.751   2.943
  981SOL    HW115002   0.201   0.828   3.007
  981SOL    HW215003   0.162   0.785   2.854
  982SOL     OW15004   0.331   1.414   3.329
  982SOL    HW115005   0.381   1.486   3.378
  982SOL    HW215006   0.244   1.396   3.374
  983SOL     OW15007   1.649   1.699   3.631
  983SOL    HW115008   1.618   1.605   3.614
  983SOL    HW215009   1.618   1.758   3.557
  984SOL     OW15010   1.373   1.264   2.322
  984SOL    HW115011   1.464   1.261   2.364
  984SOL    HW215012   1.382   1.247   2.224
  985SOL     OW15013   0.686   0.359   2.286
  985SOL    HW115014   0.586   0.364   2.288
  985SOL    HW215015   0.720   0.336   2.377
  986SOL     OW15016   1.087   0.765   3.350
  986SOL    HW115017   1.175   0.717   3.349
  986SOL    HW215018   1.071   0.805   3.259
  987SOL     OW15019   1.270   1.399   2.869
  987SOL    HW115020   1.206   1.455   2.921
  987SOL    HW215021   1.296   1.447   2.784
  988SOL     OW15022   1.299   0.438   2.536
  988SOL    HW115023   1.320   0.446   2.439
  988SOL    HW215024   1.384   0.438   2.589
  989SOL     OW15025   1.104   1.438   4.450
  989SOL    HW115026   1.197   1.474   4.451
  989SOL    HW215027   1.060   1.461   4.363
  990SOL     OW15028   1.622   1.295   4.250
  990SOL    HW115029   1.635   1.355   4.329
  990SOL    HW215030   1.709   1.249   4.229
  991SOL     OW15031   1.613   0.616   5.135
  991SOL    HW115032   1.524   0.587   5.170
  991SOL    HW215033   1.677   0.626   5.211
  992SOL     OW15034   0.354   0.298   3.699
  992SOL    HW115035   0.283   0.310   3.630
  992SOL    HW215036   0.436   0.348   3.671
  993SOL     OW15037   1.365   1.541   4.468
  993SOL    HW115038   1.370   1.641   4.472
  993SOL    HW215039   1.457   1.503   4.456
  994SOL     OW15040   1.195   0.085   5.080
  994SOL    HW115041   1.124   0.044   5.023
  994SOL    HW215042   1.282   0.037   5.065
  995SOL     OW15043   0.985   0.847   5.410
  995SOL    HW115044   0.965   0.768   5.353
  995SOL    HW215045   0.901   0.879   5.453
  996SOL     OW15046   0.601   1.487   4.064
  996SOL    HW115047   0.559   1.529   4.145
  996SOL    HW215048   0.669   1.420   4.093
  997SOL     OW15049   0.520   0.111   3.803
  997SOL    HW115050   0.611   0.149   3.789
  997SOL    HW215051   0.452   0.173   3.764
  998SOL     OW15052   1.580   1.066   5.215
  998SOL    HW115053   1.485   1.092   5.199
  998SOL    HW215054   1.637   1.104   5.141
  999SOL     OW15055   1.471   1.043   4.913
  999SOL    HW115056   1.407   1.076   4.983
  999SOL    HW215057   1.561   1.084   4.928
 1000SOL     OW15058   0.974   1.328   5.192
 1000SOL    HW115059   0.889   1.358   5.149
 1000SOL    HW215060   1.003   1.241   5.151
 1001SOL     OW15061   0.555   1.280   4.409
 1001SOL    HW115062   0.529   1.295   4.504
 1001SOL    HW215063   0.646   1.240   4.405
 1002SOL     OW15064   0.698   0.639   4.298
 1002SOL    HW115065   0.714   0.713   4.233
 1002SOL    HW215066   0.679   0.554   4.248
 1003SOL     OW15067   1.321   0.533   5.497
 1003SOL    HW115068   1.421   0.527   5.500
 1003SOL    HW215069   1.281   0.456   5.546
 1004SOL     OW15070   0.436   1.392   3.845
 1004SOL    HW115071   0.488   1.403   3.761
 1004SOL    HW215072   0.479   1.447   3.918
 1005SOL     OW15073   0.633   0.364   4.659
 1005SOL    HW115074   0.690   0.440   4.690
 1005SOL    HW215075   0.691   0.284   4.640
 1006SOL     OW15076   0.244   0.811   4.161
 1006SOL    HW115077   0.276   0.800   4.255
 1006SOL    HW215078   0.174   0.742   4.142
 1007SOL     OW15079   0.886   1.734   4.322
 1007SOL    HW115080   0.925   1.650   4.284
 1007SOL    HW215081   0.858   1.794   4.247
 1008SOL     OW15082   1.836   1.649   4.100
 1008SOL    HW115083   1.913   1.589   4.078
 1008SOL    HW215084   1.790   1.676   4.015
 1009SOL     OW15085   1.691   0.346   4.826
 1009SOL    HW115086   1.719   0.440   4.846
 1009SOL    HW215087   1.597   0.345   4.791
 1010SOL     OW15088   1.049   0.370   4.017
 1010SOL    HW115089   1.112   0.442   4.045
 1010SOL    HW215090   1.044   0.300   4.089
 1011SOL     OW15091   0.187   0.986   5.292
 1011SOL    HW115092   0.265   1.046   5.311
 1011SOL    HW215093   0.166   0.931   5.374
 1012SOL     OW15094   0.404   0.730   3.676
 1012SOL    HW115095   0.415   0.827   3.696
 1012SOL    HW215096   0.482   0.698   3.623
 1013SOL     OW15097   0.704   1.598   4.478
 1013SOL    HW115098   0.770   1.657   4.432
 1013SOL    HW215099   0.626   1.582   4.417
 1014SOL     OW15100   0.989   0.607   5.255
 1014SOL    HW115101   1.013   0.519   5.296
 1014SOL    HW215102   1.066   0.642   5.202
 1015SOL     OW15103   1.636   1.459   4.496
 1015SOL    HW115104   1.639   1.486   4.592
 1015SOL    HW215105   1.692   1.521   4.442
 1016SOL     OW15106   0.368   1.222   4.204
 1016SOL    HW115107   0.434   1.232   4.279
 1016SOL    HW215108   0.416   1.195   4.121
 1017SOL     OW15109   1.146   0.287   3.776
 1017SOL    HW115110   1.227   0.230   3.792
 1017SOL    HW215111   1.110   0.320   3.863
 1018SOL     OW15112   0.316   0.550   4.959
 1018SOL    HW115113   0.355   0.473   4.909
 1018SOL    HW215114   0.315   0.631   4.899
 1019SOL     OW15115   1.436   0.782   4.999
 1019SOL    HW115116   1.458   0.875   4.971
 1019SOL    HW215117   1.516   0.740   5.042
 1020SOL     OW15118   0.411   0.262   4.140
 1020SOL    HW115119   0.375   0.301   4.225
 1020SOL    HW215120   0.368   0.307   4.062
 1021SOL     OW15121   1.758   0.597   4.898
 1021SOL    HW115122   1.847   0.643   4.899
 1021SOL    HW215123   1.712   0.610   4.985
 1022SOL     OW15124   1.874   1.745   4.807
 1022SOL    HW115125   1.881   1.798   4.892
 1022SOL    HW215126   1.965   1.725   4.772
 1023SOL     OW15127   0.942   0.496   4.373
 1023SOL    HW115128   1.018   0.523   4.432
 1023SOL    HW215129   0.890   0.577   4.347
 1024SOL     OW15130   1.234   0.998   3.827
 1024SOL    HW115131   1.256   0.939   3.905
 1024SOL    HW215132   1.161   0.957   3.773
 1025SOL     OW15133   1.024   0.368   5.413
 1025SOL    HW115134   1.088   0.362   5.490
 1025SOL    HW215135   0.932   0.347   5.445
 1026SOL     OW15136   1.749   0.707   4.057
 1026SOL    HW115137   1.696   0.623   4.072
 1026SOL    HW215138   1.816   0.718   4.130
 1027SOL     OW15139   1.026   1.754   3.824
 1027SOL    HW115140   1.065   1.699   3.750
 1027SOL    HW215141   1.039   1.707   3.911
 1028SOL     OW15142   0.769   0.145   5.409
 1028SOL    HW115143   0.812   0.057   5.389
 1028SOL    HW215144   0.770   0.161   5.508
 1029SOL     OW15145   1.721   0.665   4.632
 1029SOL    HW115146   1.691   0.760   4.630
 1029SOL    HW215147   1.728   0.634   4.727
 1030SOL     OW15148   1.092   1.248   5.450
 1030SOL    HW115149   1.137   1.163   5.423
 1030SOL    HW215150   1.026   1.275   5.380
 1031SOL     OW15151   0.771   1.114   5.391
 1031SOL    HW115152   0.717   1.197   5.411
 1031SOL    HW215153   0.780   1.060   5.474
 1032SOL     OW15154   1.392   0.006   4.587
 1032SOL    HW115155   1.340   0.091   4.590
 1032SOL    HW215156   1.474   0.019   4.531
 1033SOL     OW15157   1.789   0.211   5.482
 1033SOL    HW115158   1.792   0.169   5.573
 1033SOL    HW215159   1.725   0.161   5.424
 1034SOL     OW15160   0.465   0.154   4.495
 1034SOL    HW115161   0.525   0.215   4.547
 1034SOL    HW215162   0.514   0.070   4.474
 1035SOL     OW15163   0.413   0.332   4.826
 1035SOL    HW115164   0.399   0.244   4.872
 1035SOL    HW215165   0.499   0.329   4.776
 1036SOL     OW15166   1.077   0.797   4.621
 1036SOL    HW115167   0.988   0.820   4.582
 1036SOL    HW215168   1.103   0.705   4.594
 1037SOL     OW15169   0.270   1.552   4.139
 1037SOL    HW115170   0.210   1.472   4.131
 1037SOL    HW215171   0.292   1.587   4.048
 1038SOL     OW15172   1.479   1.381   4.940
 1038SOL    HW115173   1.441   1.381   4.847
 1038SOL    HW215174   1.404   1.385   5.006
 1039SOL     OW15175   0.105   1.679   4.321
 1039SOL    HW115176   0.061   1.763   4.288
 1039SOL    HW215177   0.163   1.641   4.248
 1040SOL     OW15178   1.742   1.414   4.978
 1040SOL    HW115179   1.765   1.445   5.070
 1040SOL    HW215180   1.643   1.403   4.971
 1041SOL     OW15181   0.484   0.989   3.730
 1041SOL    HW115182   0.471   1.050   3.651
 1041SOL    HW215183   0.469   1.041   3.814
 1042SOL     OW15184   0.985   1.111   5.003
 1042SOL    HW115185   1.032   1.031   4.967
 1042SOL    HW215186   0.944   1.162   4.927
 1043SOL     OW15187   0.113   0.934   3.940
 1043SOL    HW115188   0.165   0.904   4.020
 1043SOL    HW215189   0.031   0.877   3.931
 1044SOL     OW15190   1.573   0.919   4.098
 1044SOL    HW115191   1.635   0.842   4.088
 1044SOL    HW215192   1.595   0.989   4.030
 1045SOL     OW15193   0.752   0.924   3.754
 1045SOL    HW115194   0.774   0.836   3.797
 1045SOL    HW215195   0.654   0.929   3.739
 1046SOL     OW15196   1.374   0.431   4.142
 1046SOL    HW115197   1.326   0.494   4.081
 1046SOL    HW215198   1.471   0.451   4.141
 1047SOL     OW15199   0.341   0.682   5.195
 1047SOL    HW115200   0.333   0.626   5.113
 1047SOL    HW215201   0.278   0.649   5.265
 1048SOL     OW15202   0.167   0.329   5.049
 1048SOL    HW115203   0.206   0.419   5.033
 1048SOL    HW215204   0.124   0.296   4.965
 1049SOL     OW15205   1.048   0.857   4.898
 1049SOL    HW115206   1.062   0.841   4.800
 1049SOL    HW215207   0.963   0.813   4.927
 1050SOL     OW15208   1.645   0.472   4.174
 1050SOL    HW115209   1.729   0.423   4.149
 1050SOL    HW215210   1.639   0.478   4.274
 1051SOL     OW15211   0.877   1.428   4.616
 1051SOL    HW115212   0.963   1.433   4.566
 1051SOL    HW215213   0.810   1.490   4.574
 1052SOL     OW15214   0.794   0.418   3.936
 1052SOL    HW115215   0.735   0.413   4.016
 1052SOL    HW215216   0.890   0.406   3.964
 1053SOL     OW15217   0.990   1.299   3.835
 1053SOL    HW115218   1.040   1.278   3.919
 1053SOL    HW215219   1.052   1.297   3.757
 1054SOL     OW15220   1.781   1.646   4.365
 1054SOL    HW115221   1.744   1.735   4.388
 1054SOL    HW215222   1.793   1.639   4.266
 1055SOL     OW15223   1.171   0.915   4.258
 1055SOL    HW115224   1.214   0.936   4.346
 1055SOL    HW215225   1.081   0.958   4.253
 1056SOL     OW15226   0.946   1.560   5.385
 1056SOL    HW115227   0.957   1.493   5.312
 1056SOL    HW215228   0.899   1.519   5.462
 1057SOL     OW15229   1.292   0.938   4.507
 1057SOL    HW115230   1.218   0.880   4.541
 1057SOL    HW215231   1.307   1.014   4.569
 1058SOL     OW15232   0.921   1.023   4.220
 1058SOL    HW115233   0.863   0.954   4.175
 1058SOL    HW215234   0.876   1.054   4.303
 1059SOL     OW15235   1.225   1.391   5.068
 1059SOL    HW115236   1.213   1.460   4.996
 1059SOL    HW215237   1.142   1.387   5.123
 1060SOL     OW15238   0.111   0.336   4.169
 1060SOL    HW115239   0.160   0.339   4.082
 1060SOL    HW215240   0.174   0.354   4.244
 1061SOL     OW15241   1.712   1.783   3.888
 1061SOL    HW115242   1.792   1.842   3.877
 1061SOL    HW215243   1.683   1.749   3.799
 1062SOL     OW15244   0.840   0.756   5.058
 1062SOL    HW115245   0.817   0.842   5.104
 1062SOL    HW215246   0.884   0.694   5.124
 1063SOL     OW15247   0.749   0.829   4.108
 1063SOL    HW115248   0.654   0.856   4.089
 1063SOL    HW215249   0.786   0.783   4.028
 1064SOL     OW15250   0.275   0.474   4.627
 1064SOL    HW115251   0.352   0.523   4.586
 1064SOL    HW215252   0.308   0.415   4.700
 1065SOL     OW15253   0.359   1.721   3.918
 1065SOL    HW115254   0.444   1.771   3.903
 1065SOL    HW215255   0.299   1.775   3.977
 1066SOL     OW15256   1.419   1.689   4.744
 1066SOL    HW115257   1.416   1.742   4.660
 1066SOL    HW215258   1.509   1.646   4.754
 1067SOL     OW15259   0.814   9.988   4.021
 1067SOL    HW115260   0.825   9.920   3.948
 1067SOL    HW215261   0.716   0.001   4.038
 1068SOL     OW15262   0.112   1.324   4.164
 1068SOL    HW115263   0.197   1.279   4.191
 1068SOL    HW215264   0.075   1.281   4.082
 1069SOL     OW15265   1.533   0.337   5.268
 1069SOL    HW115266   1.461   0.403   5.248
 1069SOL    HW215267   1.581   0.365   5.352
 1070SOL     OW15268   1.268   0.251   4.610
 1070SOL    HW115269   1.286   0.298   4.524
 1070SOL    HW215270   1.321   0.294   4.684
 1071SOL     OW15271   1.344   0.098   3.832
 1071SOL    HW115272   1.399   0.017   3.812
 1071SOL    HW215273   1.357   0.123   3.928
 1072SOL     OW15274   1.622   0.075   5.316
 1072SOL    HW115275   1.618   0.014   5.238
 1072SOL    HW215276   1.577   0.162   5.293
 1073SOL     OW15277   0.808   0.268   4.349
 1073SOL    HW115278   0.794   0.221   4.436
 1073SOL    HW215279   0.863   0.350   4.364
 1074SOL     OW15280   1.296   0.639   4.812
 1074SOL    HW115281   1.283   0.698   4.732
 1074SOL    HW215282   1.345   0.689   4.882
 1075SOL     OW15283   1.609   0.029   4.167
 1075SOL    HW115284   1.623   9.959   4.098
 1075SOL    HW215285   1.528   0.083   4.144
 1076SOL     OW15286   0.613   1.332   5.446
 1076SOL    HW115287   0.587   1.399   5.376
 1076SOL    HW215288   0.679   1.373   5.508
 1077SOL     OW15289   0.423   1.136   5.372
 1077SOL    HW115290   0.447   1.118   5.276
 1077SOL    HW215291   0.482   1.208   5.408
 1078SOL     OW15292   0.087   1.498   4.744
 1078SOL    HW115293   0.092   1.442   4.661
 1078SOL    HW215294   9.994   1.497   4.779
 1079SOL     OW15295   1.145   0.547   4.549
 1079SOL    HW115296   1.226   0.509   4.502
 1079SOL    HW215297   1.125   0.491   4.629
 1080SOL     OW15298   1.786   0.656   5.357
 1080SOL    HW115299   1.789   0.741   5.305
 1080SOL    HW215300   1.876   0.637   5.396
 1081SOL     OW15301   1.414   0.389   4.794
 1081SOL    HW115302   1.376   0.481   4.799
 1081SOL    HW215303   1.413   0.347   4.885
 1082SOL     OW15304   1.594   0.499   5.484
 1082SOL    HW115305   1.670   0.556   5.451
 1082SOL    HW215306   1.613   0.469   5.577
 1083SOL     OW15307   1.314   0.847   4.044
 1083SOL    HW115308   1.256   0.871   4.122
 1083SOL    HW215309   1.409   0.871   4.064
 1084SOL     OW15310   1.540   0.987   4.371
 1084SOL    HW115311   1.538   0.971   4.273
 1084SOL    HW215312   1.453   0.960   4.412
 1085SOL     OW15313   1.789   0.876   5.198
 1085SOL    HW115314   1.707   0.932   5.190
 1085SOL    HW215315   1.868   0.935   5.214
 1086SOL     OW15316   0.141   0.252   5.313
 1086SOL    HW115317   0.151   0.273   5.216
 1086SOL    HW215318   0.076   0.176   5.324
 1087SOL     OW15319   0.298   0.342   4.375
 1087SOL    HW115320   0.264   0.401   4.448
 1087SOL    HW215321   0.360   0.274   4.413
 1088SOL     OW15322   0.332   0.639   3.925
 1088SOL    HW115323   0.354   0.665   3.830
 1088SOL    HW215324   0.372   0.706   3.987
 1089SOL     OW15325   1.760   0.297   5.089
 1089SOL    HW115326   1.687   0.324   5.152
 1089SOL    HW215327   1.727   0.304   4.995
 1090SOL     OW15328   0.340   1.728   4.461
 1090SOL    HW115329   0.247   1.723   4.424
 1090SOL    HW215330   0.399   1.665   4.412
 1091SOL     OW15331   1.267   1.460   5.421
 1091SOL    HW115332   1.214   1.377   5.438
 1091SOL    HW215333   1.204   1.538   5.412
 1092SOL     OW15334   0.781   1.300   4.159
 1092SOL    HW115335   0.791   1.240   4.079
 1092SOL    HW215336   0.801   1.248   4.242
 1093SOL     OW15337   0.349   0.772   4.410
 1093SOL    HW115338   0.364   0.849   4.472
 1093SOL    HW215339   0.403   0.694   4.441
 1094SOL     OW15340   0.272   0.378   3.945
 1094SOL    HW115341   0.287   0.333   3.857
 1094SOL    HW215342   0.300   0.474   3.938
 1095SOL     OW15343   0.504   1.155   3.962
 1095SOL    HW115344   0.604   1.158   3.955
 1095SOL    HW215345   0.465   1.238   3.921
 1096SOL     OW15346   1.073   0.649   3.754
 1096SOL    HW115347   1.067   0.731   3.696
 1096SOL    HW215348   1.043   0.569   3.702
 1097SOL     OW15349   0.832   0.690   3.882
 1097SOL    HW115350   0.926   0.686   3.848
 1097SOL    HW215351   0.795   0.598   3.892
 1098SOL     OW15352   1.375   0.160   4.102
 1098SOL    HW115353   1.314   0.115   4.168
 1098SOL    HW215354   1.372   0.259   4.118
 1099SOL     OW15355   1.356   0.537   5.225
 1099SOL    HW115356   1.337   0.549   5.322
 1099SOL    HW215357   1.291   0.591   5.171
 1100SOL     OW15358   0.105   9.886   3.727
 1100SOL    HW115359   0.189   9.866   3.779
 1100SOL    HW215360   0.030   9.904   3.791
 1101SOL     OW15361   1.655   1.074   3.887
 1101SOL    HW115362   1.752   1.088   3.906
 1101SOL    HW215363   1.642   1.058   3.789
 1102SOL     OW15364   0.648   0.783   4.869
 1102SOL    HW115365   0.714   0.773   4.943
 1102SOL    HW215366   0.559   0.808   4.906
 1103SOL     OW15367   0.774   1.010   5.145
 1103SOL    HW115368   0.848   1.052   5.091
 1103SOL    HW215369   0.776   1.047   5.238
 1104SOL     OW15370   1.188   1.016   5.338
 1104SOL    HW115371   1.107   0.960   5.354
 1104SOL    HW215372   1.270   0.964   5.362
 1105SOL     OW15373   1.200   0.024   4.264
 1105SOL    HW115374   1.186   9.962   4.341
 1105SOL    HW215375   1.115   0.072   4.243
 1106SOL     OW15376   0.773   0.146   4.588
 1106SOL    HW115377   0.738   0.057   4.558
 1106SOL    HW215378   0.866   0.134   4.624
 1107SOL     OW15379   1.059   1.178   4.528
 1107SOL    HW115380   1.084   1.269   4.497
 1107SOL    HW215381   1.128   1.145   4.593
 1108SOL     OW15382   0.727   0.985   4.665
 1108SOL    HW115383   0.761   0.911   4.607
 1108SOL    HW215384   0.681   0.947   4.745
 1109SOL     OW15385   0.270   0.024   4.120
 1109SOL    HW115386   0.321   0.110   4.119
 1109SOL    HW215387   0.199   0.029   4.190
 1110SOL     OW15388   0.755   0.637   5.401
 1110SOL    HW115389   0.695   0.692   5.344
 1110SOL    HW215390   0.836   0.610   5.349
 1111SOL     OW15391   0.042   1.202   3.927
 1111SOL    HW115392   0.078   1.109   3.923
 1111SOL    HW215393   0.085   1.257   3.856
 1112SOL     OW15394   1.810   0.253   4.492
 1112SOL    HW115395   1.846   0.227   4.581
 1112SOL    HW215396   1.885   0.275   4.430
 1113SOL     OW15397   0.833   1.226   4.797
 1113SOL    HW115398   0.801   1.147   4.746
 1113SOL    HW215399   0.854   1.300   4.734
 1114SOL     OW15400   1.224   0.597   3.982
 1114SOL    HW115401   1.258   0.686   4.011
 1114SOL    HW215402   1.174   0.606   3.896
 1115SOL     OW15403   1.539   1.406   5.356
 1115SOL    HW115404   1.545   1.317   5.401
 1115SOL    HW215405   1.445   1.440   5.363
 1116SOL     OW15406   0.418   0.866   4.998
 1116SOL    HW115407   0.370   0.815   5.070
 1116SOL    HW215408   0.434   0.960   5.028
 1117SOL     OW15409   0.829   1.482   3.705
 1117SOL    HW115410   0.792   1.549   3.769
 1117SOL    HW215411   0.891   1.420   3.754
 1118SOL     OW15412   0.599   1.713   4.708
 1118SOL    HW115413   0.643   1.661   4.635
 1118SOL    HW215414   0.510   1.672   4.728
 1119SOL     OW15415   0.802   1.142   4.441
 1119SOL    HW115416   0.894   1.168   4.470
 1119SOL    HW215417   0.758   1.089   4.514
 1120SOL     OW15418   0.976   1.497   4.213
 1120SOL    HW115419   1.042   1.512   4.139
 1120SOL    HW215420   0.910   1.428   4.185
 1121SOL     OW15421   0.112   0.851   5.523
 1121SOL    HW115422   0.063   0.766   5.503
 1121SOL    HW215423   0.142   0.850   5.619
 1122SOL     OW15424   1.298   1.125   4.702
 1122SOL    HW115425   1.309   1.224   4.698
 1122SOL    HW215426   1.353   1.088   4.777
 1123SOL     OW15427   0.458   0.455   5.449
 1123SOL    HW115428   0.529   0.420   5.388
 1123SOL    HW215429   0.493   0.535   5.498
 1124SOL     OW15430   0.488   0.896   4.062
 1124SOL    HW115431   0.487   0.990   4.028
 1124SOL    HW215432   0.401   0.876   4.107
 1125SOL     OW15433   1.642   0.935   4.686
 1125SOL    HW115434   1.652   1.018   4.632
 1125SOL    HW215435   1.575   0.950   4.759
 1126SOL     OW15436   1.415   0.260   5.032
 1126SOL    HW115437   1.463   0.289   5.115
 1126SOL    HW215438   1.322   0.233   5.056
 1127SOL     OW15439   0.054   0.088   4.289
 1127SOL    HW115440   9.961   0.056   4.268
 1127SOL    HW215441   0.066   0.181   4.255
 1128SOL     OW15442   1.117   0.108   5.348
 1128SOL    HW115443   1.155   0.100   5.256
 1128SOL    HW215444   1.089   0.203   5.364
 1129SOL     OW15445   0.546   1.531   5.268
 1129SOL    HW115446   0.512   1.582   5.346
 1129SOL    HW215447   0.619   1.583   5.223
 1130SOL     OW15448   1.779   1.486   5.243
 1130SOL    HW115449   1.807   1.579   5.266
 1130SOL    HW215450   1.690   1.467   5.285
 1131SOL     OW15451   1.039   0.525   4.832
 1131SOL    HW115452   1.128   0.571   4.837
 1131SOL    HW215453   1.039   0.448   4.896
 1132SOL     OW15454   0.477   1.532   4.316
 1132SOL    HW115455   0.498   1.438   4.342
 1132SOL    HW215456   0.398   1.534   4.256
 1133SOL     OW15457   1.200   1.574   4.863
 1133SOL    HW115458   1.115   1.618   4.834
 1133SOL    HW215459   1.278   1.627   4.829
 1134SOL     OW15460   0.508   1.666   5.500
 1134SOL    HW115461   0.599   1.705   5.483
 1134SOL    HW215462   0.467   1.712   5.579
 1135SOL     OW15463   0.339   1.616   4.717
 1135SOL    HW115464   0.249   1.581   4.742
 1135SOL    HW215465   0.332   1.666   4.630
 1136SOL     OW15466   1.027   0.126   4.677
 1136SOL    HW115467   1.113   0.171   4.654
 1136SOL    HW215468   1.034   0.088   4.770
 1137SOL     OW15469   1.087   1.217   4.082
 1137SOL    HW115470   1.175   1.233   4.126
 1137SOL    HW215471   1.038   1.145   4.130
 1138SOL     OW15472   1.632   0.466   4.455
 1138SOL    HW115473   1.657   0.542   4.514
 1138SOL    HW215474   1.691   0.388   4.474
 1139SOL     OW15475   0.776   1.151   3.920
 1139SOL    HW115476   0.852   1.208   3.888
 1139SOL    HW215477   0.781   1.061   3.877
 1140SOL     OW15478   0.789   0.179   3.795
 1140SOL    HW115479   0.828   0.119   3.864
 1140SOL    HW215480   0.786   0.273   3.830
 1141SOL     OW15481   0.513   0.563   4.499
 1141SOL    HW115482   0.556   0.491   4.554
 1141SOL    HW215483   0.575   0.591   4.426
 1142SOL     OW15484   0.512   1.103   5.113
 1142SOL    HW115485   0.610   1.084   5.110
 1142SOL    HW215486   0.495   1.197   5.083
 1143SOL     OW15487   1.720   1.138   4.990
 1143SOL    HW115488   1.736   1.236   4.982
 1143SOL    HW215489   1.791   1.089   4.939
 1144SOL     OW15490   0.173   1.371   3.745
 1144SOL    HW115491   0.173   1.373   3.645
 1144SOL    HW215492   0.267   1.381   3.778
 1145SOL     OW15493   0.700   1.650   3.868
 1145SOL    HW115494   0.649   1.736   3.860
 1145SOL    HW215495   0.665   1.598   3.946
 1146SOL     OW15496   1.325   1.137   5.129
 1146SOL    HW115497   1.265   1.094   5.197
 1146SOL    HW215498   1.290   1.228   5.107
 1147SOL     OW15499   0.201   0.512   5.372
 1147SOL    HW115500   0.166   0.420   5.351
 1147SOL    HW215501   0.295   0.504   5.405
 1148SOL     OW15502   1.672   1.570   4.749
 1148SOL    HW115503   1.738   1.644   4.754
 1148SOL    HW215504   1.686   1.507   4.826
 1149SOL     OW15505   0.588   0.789   5.259
 1149SOL    HW115506   0.496   0.753   5.241
 1149SOL    HW215507   0.600   0.876   5.211
 1150SOL     OW15508   1.654   1.179   4.541
 1150SOL    HW115509   1.632   1.276   4.530
 1150SOL    HW215510   1.608   1.126   4.470
 1151SOL     OW15511   0.784   0.579   4.734
 1151SOL    HW115512   0.874   0.562   4.773
 1151SOL    HW215513   0.737   0.649   4.788
 1152SOL     OW15514   0.752   1.355   5.033
 1152SOL    HW115515   0.652   1.366   5.034
 1152SOL    HW215516   0.781   1.317   4.945
 1153SOL     OW15517   0.475   1.371   5.056
 1153SOL    HW115518   0.486   1.429   5.137
 1153SOL    HW215519   0.414   1.417   4.991
 1154SOL     OW15520   1.356   1.256   4.166
 1154SOL    HW115521   1.447   1.263   4.206
 1154SOL    HW215522   1.363   1.235   4.069
 1155SOL     OW15523   0.651   0.394   4.170
 1155SOL    HW115524   0.567   0.344   4.151
 1155SOL    HW215525   0.708   0.342   4.233
 1156SOL     OW15526   1.623   0.057   4.443
 1156SOL    HW115527   1.615   0.041   4.345
 1156SOL    HW215528   1.685   0.133   4.460
 1157SOL     OW15529   1.187   0.727   5.102
 1157SOL    HW115530   1.281   0.756   5.088
 1157SOL    HW215531   1.128   0.772   5.034
 1158SOL     OW15532   0.808   0.762   4.527
 1158SOL    HW115533   0.800   0.689   4.596
 1158SOL    HW215534   0.765   0.732   4.442
 1159SOL     OW15535   1.330   1.393   4.702
 1159SOL    HW115536   1.269   1.447   4.760
 1159SOL    HW215537   1.345   1.440   4.615
 1160SOL     OW15538   1.357   0.429   4.417
 1160SOL    HW115539   1.348   0.429   4.318
 1160SOL    HW215540   1.453   0.444   4.442
 1161SOL     OW15541   1.072   1.485   6.327
 1161SOL    HW115542   1.172   1.491   6.329
 1161SOL    HW215543   1.043   1.449   6.239
 1162SOL     OW15544   1.642   1.251   6.085
 1162SOL    HW115545   1.652   1.337   6.136
 1162SOL    HW215546   1.733   1.214   6.064
 1163SOL     OW15547   1.602   0.625   6.985
 1163SOL    HW115548   1.518   0.582   7.018
 1163SOL    HW215549   1.668   0.630   7.059
 1164SOL     OW15550   0.300   0.269   5.564
 1164SOL    HW115551   0.235   0.233   5.497
 1164SOL    HW215552   0.359   0.336   5.520
 1165SOL     OW15553   1.351   1.519   6.320
 1165SOL    HW115554   1.347   1.572   6.235
 1165SOL    HW215555   1.442   1.478   6.329
 1166SOL     OW15556   1.198   0.099   6.920
 1166SOL    HW115557   1.140   0.040   6.976
 1166SOL    HW215558   1.282   0.051   6.896
 1167SOL     OW15559   0.985   0.874   7.284
 1167SOL    HW115560   0.959   0.806   7.216
 1167SOL    HW215561   0.903   0.910   7.329
 1168SOL     OW15562   0.553   1.442   5.930
 1168SOL    HW115563   0.487   1.471   6.000
 1168SOL    HW215564   0.620   1.380   5.971
 1169SOL     OW15565   0.506   0.114   5.664
 1169SOL    HW115566   0.588   0.170   5.654
 1169SOL    HW215567   0.426   0.163   5.631
 1170SOL     OW15568   1.585   1.053   7.073
 1170SOL    HW115569   1.488   1.073   7.054
 1170SOL    HW215570   1.641   1.086   6.997
 1171SOL     OW15571   1.426   1.075   6.750
 1171SOL    HW115572   1.382   1.074   6.840
 1171SOL    HW215573   1.455   1.168   6.728
 1172SOL     OW15574   1.000   1.357   7.005
 1172SOL    HW115575   0.916   1.410   6.994
 1172SOL    HW215576   0.996   1.276   6.947
 1173SOL     OW15577   0.457   1.236   6.223
 1173SOL    HW115578   0.414   1.190   6.300
 1173SOL    HW215579   0.556   1.234   6.232
 1174SOL     OW15580   0.686   0.630   6.114
 1174SOL    HW115581   0.710   0.708   6.056
 1174SOL    HW215582   0.671   0.549   6.057
 1175SOL     OW15583   1.321   0.526   7.333
 1175SOL    HW115584   1.421   0.526   7.335
 1175SOL    HW215585   1.287   0.451   7.390
 1176SOL     OW15586   0.424   1.387   5.695
 1176SOL    HW115587   0.453   1.448   5.622
 1176SOL    HW215588   0.466   1.416   5.781
 1177SOL     OW15589   0.620   0.340   6.607
 1177SOL    HW115590   0.686   0.406   6.572
 1177SOL    HW215591   0.631   0.253   6.558
 1178SOL     OW15592   0.268   0.850   6.063
 1178SOL    HW115593   0.317   0.843   6.150
 1178SOL    HW215594   0.170   0.861   6.080
 1179SOL     OW15595   1.813   1.563   5.927
 1179SOL    HW115596   1.905   1.527   5.911
 1179SOL    HW215597   1.781   1.609   5.844
 1180SOL     OW15598   1.661   0.359   6.681
 1180SOL    HW115599   1.687   0.454   6.698
 1180SOL    HW215600   1.568   0.357   6.642
 1181SOL     OW15601   1.062   0.375   5.863
 1181SOL    HW115602   1.117   0.452   5.897
 1181SOL    HW215603   1.049   0.308   5.936
 1182SOL     OW15604   0.168   1.041   7.137
 1182SOL    HW115605   0.264   1.058   7.158
 1182SOL    HW215606   0.126   0.988   7.211
 1183SOL     OW15607   0.554   0.675   5.578
 1183SOL    HW115608   0.523   0.770   5.566
 1183SOL    HW215609   0.639   0.662   5.528
 1184SOL     OW15610   0.974   0.632   7.129
 1184SOL    HW115611   0.990   0.557   7.192
 1184SOL    HW215612   1.059   0.651   7.078
 1185SOL     OW15613   1.624   1.451   6.334
 1185SOL    HW115614   1.639   1.478   6.429
 1185SOL    HW215615   1.681   1.508   6.275
 1186SOL     OW15616   0.323   1.200   5.987
 1186SOL    HW115617   0.373   1.211   6.072
 1186SOL    HW215618   0.385   1.173   5.914
 1187SOL     OW15619   1.196   0.327   5.628
 1187SOL    HW115620   1.276   0.272   5.650
 1187SOL    HW215621   1.142   0.343   5.711
 1188SOL     OW15622   0.405   0.561   6.811
 1188SOL    HW115623   0.407   0.462   6.799
 1188SOL    HW215624   0.335   0.600   6.750
 1189SOL     OW15625   1.430   0.794   6.841
 1189SOL    HW115626   1.455   0.887   6.816
 1189SOL    HW215627   1.506   0.750   6.889
 1190SOL     OW15628   0.395   0.280   5.971
 1190SOL    HW115629   0.356   0.299   6.061
 1190SOL    HW215630   0.347   0.333   5.901
 1191SOL     OW15631   1.569   1.745   6.883
 1191SOL    HW115632   1.497   1.775   6.820
 1191SOL    HW215633   1.655   1.736   6.833
 1192SOL     OW15634   1.738   0.612   6.743
 1192SOL    HW115635   1.830   0.651   6.749
 1192SOL    HW215636   1.692   0.622   6.831
 1193SOL     OW15637   1.813   1.735   6.736
 1193SOL    HW115638   1.854   1.776   6.817
 1193SOL    HW215639   1.885   1.710   6.672
 1194SOL     OW15640   0.946   0.523   6.182
 1194SOL    HW115641   1.013   0.561   6.245
 1194SOL    HW215642   0.878   0.593   6.159
 1195SOL     OW15643   1.252   0.963   5.690
 1195SOL    HW115644   1.278   0.927   5.780
 1195SOL    HW215645   1.210   0.890   5.636
 1196SOL     OW15646   0.997   0.442   7.332
 1196SOL    HW115647   1.078   0.406   7.377
 1196SOL    HW215648   0.923   0.452   7.400
 1197SOL     OW15649   1.764   0.693   5.907
 1197SOL    HW115650   1.708   0.610   5.913
 1197SOL    HW215651   1.826   0.697   5.984
 1198SOL     OW15652   0.807   0.137   7.282
 1198SOL    HW115653   0.785   0.042   7.260
 1198SOL    HW215654   0.787   0.155   7.378
 1199SOL     OW15655   1.699   0.670   6.474
 1199SOL    HW115656   1.662   0.762   6.466
 1199SOL    HW215657   1.708   0.645   6.570
 1200SOL     OW15658   1.113   1.330   7.272
 1200SOL    HW115659   1.154   1.239   7.267
 1200SOL    HW215660   1.061   1.348   7.189
 1201SOL     OW15661   0.757   1.152   7.264
 1201SOL    HW115662   0.697   1.229   7.281
 1201SOL    HW215663   0.761   1.094   7.346
 1202SOL     OW15664   1.380   0.025   6.439
 1202SOL    HW115665   1.320   0.104   6.429
 1202SOL    HW215666   1.465   0.041   6.390
 1203SOL     OW15667   1.784   0.191   7.350
 1203SOL    HW115668   1.795   0.135   7.432
 1203SOL    HW215669   1.728   0.141   7.283
 1204SOL     OW15670   0.008   0.607   6.148
 1204SOL    HW115671   0.059   0.568   6.224
 1204SOL    HW215672   0.016   0.707   6.150
 1205SOL     OW15673   0.335   0.179   6.428
 1205SOL    HW115674   0.341   0.273   6.462
 1205SOL    HW215675   0.418   0.129   6.451
 1206SOL     OW15676   0.419   0.287   6.781
 1206SOL    HW115677   0.407   0.190   6.803
 1206SOL    HW215678   0.501   0.298   6.725
 1207SOL     OW15679   1.016   0.830   6.495
 1207SOL    HW115680   0.920   0.829   6.466
 1207SOL    HW215681   1.065   0.756   6.449
 1208SOL     OW15682   0.157   1.420   5.932
 1208SOL    HW115683   0.206   1.334   5.945
 1208SOL    HW215684   0.175   1.456   5.841
 1209SOL     OW15685   1.459   1.362   6.757
 1209SOL    HW115686   1.432   1.429   6.688
 1209SOL    HW215687   1.393   1.362   6.832
 1210SOL     OW15688   1.728   1.385   6.812
 1210SOL    HW115689   1.751   1.424   6.901
 1210SOL    HW215690   1.629   1.377   6.803
 1211SOL     OW15691   0.501   0.947   5.566
 1211SOL    HW115692   0.468   0.993   5.484
 1211SOL    HW215693   0.475   1.000   5.647
 1212SOL     OW15694   0.974   1.132   6.841
 1212SOL    HW115695   1.015   1.043   6.821
 1212SOL    HW215696   0.912   1.157   6.766
 1213SOL     OW15697   0.138   0.841   5.802
 1213SOL    HW115698   0.203   0.856   5.877
 1213SOL    HW215699   0.089   0.755   5.817
 1214SOL     OW15700   1.596   0.907   5.947
 1214SOL    HW115701   1.657   0.830   5.930
 1214SOL    HW215702   1.616   0.981   5.882
 1215SOL     OW15703   0.796   1.960   6.506
 1215SOL    HW115704   0.882   1.909   6.500
 1215SOL    HW215705   0.730   1.907   6.560
 1216SOL     OW15706   0.772   0.929   5.595
 1216SOL    HW115707   0.806   0.846   5.641
 1216SOL    HW215708   0.674   0.922   5.582
 1217SOL     OW15709   1.364   0.438   5.997
 1217SOL    HW115710   1.319   0.502   5.935
 1217SOL    HW215711   1.463   0.449   5.990
 1218SOL     OW15712   0.314   0.687   7.039
 1218SOL    HW115713   0.344   0.621   6.970
 1218SOL    HW215714   0.255   0.642   7.105
 1219SOL     OW15715   0.177   0.295   6.914
 1219SOL    HW115716   0.264   0.312   6.867
 1219SOL    HW215717   0.111   0.259   6.849
 1220SOL     OW15718   1.026   0.864   6.770
 1220SOL    HW115719   1.025   0.840   6.673
 1220SOL    HW215720   0.945   0.826   6.815
 1221SOL     OW15721   1.645   0.452   6.014
 1221SOL    HW115722   1.738   0.415   6.002
 1221SOL    HW215723   1.628   0.468   6.111
 1222SOL     OW15724   0.928   1.657   6.490
 1222SOL    HW115725   0.979   1.599   6.426
 1222SOL    HW215726   0.830   1.650   6.471
 1223SOL     OW15727   0.816   0.456   5.788
 1223SOL    HW115728   0.752   0.435   5.862
 1223SOL    HW215729   0.908   0.431   5.816
 1224SOL     OW15730   1.000   1.279   5.718
 1224SOL    HW115731   1.060   1.248   5.792
 1224SOL    HW215732   1.046   1.266   5.630
 1225SOL     OW15733   1.777   1.620   6.184
 1225SOL    HW115734   1.755   1.717   6.192
 1225SOL    HW215735   1.784   1.595   6.087
 1226SOL     OW15736   1.192   0.889   6.147
 1226SOL    HW115737   1.237   0.906   6.235
 1226SOL    HW215738   1.097   0.920   6.152
 1227SOL     OW15739   0.855   1.624   7.183
 1227SOL    HW115740   0.815   1.567   7.111
 1227SOL    HW215741   0.853   1.573   7.269
 1228SOL     OW15742   1.341   0.945   6.376
 1228SOL    HW115743   1.424   0.937   6.432
 1228SOL    HW215744   1.277   1.007   6.422
 1229SOL     OW15745   0.331   1.104   6.427
 1229SOL    HW115746   0.242   1.148   6.416
 1229SOL    HW215747   0.346   1.082   6.524
 1230SOL     OW15748   0.932   0.982   6.111
 1230SOL    HW115749   0.876   0.927   6.050
 1230SOL    HW215750   0.874   1.034   6.173
 1231SOL     OW15751   1.274   1.377   6.959
 1231SOL    HW115752   1.316   1.460   6.995
 1231SOL    HW215753   1.175   1.381   6.973
 1232SOL     OW15754   0.082   0.299   5.990
 1232SOL    HW115755   0.122   0.339   5.908
 1232SOL    HW215756   0.139   0.322   6.069
 1233SOL     OW15757   1.731   1.712   5.711
 1233SOL    HW115758   1.788   1.794   5.718
 1233SOL    HW215759   1.663   1.724   5.640
 1234SOL     OW15760   0.831   0.768   6.935
 1234SOL    HW115761   0.817   0.857   6.979
 1234SOL    HW215762   0.875   0.706   7.000
 1235SOL     OW15763   0.136   1.854   7.043
 1235SOL    HW115764   0.061   1.907   7.005
 1235SOL    HW215765   0.099   1.780   7.100
 1236SOL     OW15766   0.760   0.832   5.949
 1236SOL    HW115767   0.665   0.855   5.926
 1236SOL    HW215768   0.806   0.797   5.868
 1237SOL     OW15769   0.388   0.452   6.476
 1237SOL    HW115770   0.451   0.452   6.398
 1237SOL    HW215771   0.441   0.443   6.561
 1238SOL     OW15772   0.461   1.807   5.741
 1238SOL    HW115773   0.477   1.895   5.696
 1238SOL    HW215774   0.405   1.820   5.822
 1239SOL     OW15775   1.377   1.806   6.698
 1239SOL    HW115776   1.400   1.871   6.625
 1239SOL    HW215777   1.366   1.715   6.658
 1240SOL     OW15778   0.076   1.221   6.452
 1240SOL    HW115779   9.987   1.241   6.410
 1240SOL    HW215780   0.066   1.147   6.518
 1241SOL     OW15781   0.818   0.012   5.862
 1241SOL    HW115782   0.838   9.942   5.794
 1241SOL    HW215783   0.720   0.014   5.881
 1242SOL     OW15784   0.067   1.107   6.014
 1242SOL    HW115785   0.162   1.140   6.019
 1242SOL    HW215786   0.034   1.117   5.920
 1243SOL     OW15787   1.545   0.311   7.129
 1243SOL    HW115788   1.464   0.349   7.083
 1243SOL    HW215789   1.572   0.371   7.204
 1244SOL     OW15790   1.234   0.264   6.429
 1244SOL    HW115791   1.261   0.326   6.356
 1244SOL    HW215792   1.277   0.292   6.515
 1245SOL     OW15793   1.419   0.187   5.714
 1245SOL    HW115794   1.436   0.100   5.669
 1245SOL    HW215795   1.401   0.172   5.812
 1246SOL     OW15796   1.632   0.055   7.167
 1246SOL    HW115797   1.648   0.015   7.077
 1246SOL    HW215798   1.589   0.145   7.157
 1247SOL     OW15799   0.814   0.293   6.222
 1247SOL    HW115800   0.857   0.243   6.297
 1247SOL    HW215801   0.865   0.379   6.207
 1248SOL     OW15802   1.298   0.647   6.645
 1248SOL    HW115803   1.303   0.700   6.560
 1248SOL    HW215804   1.344   0.698   6.718
 1249SOL     OW15805   1.606   0.040   6.032
 1249SOL    HW115806   1.615   9.977   5.956
 1249SOL    HW215807   1.523   0.094   6.022
 1250SOL     OW15808   0.588   1.379   7.310
 1250SOL    HW115809   0.546   1.449   7.252
 1250SOL    HW215810   0.674   1.413   7.347
 1251SOL     OW15811   0.427   1.122   7.206
 1251SOL    HW115812   0.479   1.099   7.124
 1251SOL    HW215813   0.447   1.215   7.234
 1252SOL     OW15814   0.148   1.397   6.653
 1252SOL    HW115815   0.134   1.352   6.565
 1252SOL    HW215816   0.074   1.372   6.716
 1253SOL     OW15817   1.124   0.602   6.380
 1253SOL    HW115818   1.205   0.560   6.340
 1253SOL    HW215819   1.097   0.550   6.461
 1254SOL     OW15820   1.788   0.649   7.203
 1254SOL    HW115821   1.797   0.736   7.155
 1254SOL    HW215822   1.876   0.625   7.244
 1255SOL     OW15823   1.385   0.385   6.630
 1255SOL    HW115824   1.357   0.481   6.626
 1255SOL    HW215825   1.375   0.351   6.723
 1256SOL     OW15826   1.592   0.499   7.320
 1256SOL    HW115827   1.669   0.553   7.287
 1256SOL    HW215828   1.610   0.469   7.414
 1257SOL     OW15829   1.331   0.848   5.923
 1257SOL    HW115830   1.280   0.866   6.008
 1257SOL    HW215831   1.427   0.872   5.937
 1258SOL     OW15832   1.573   0.966   6.213
 1258SOL    HW115833   1.575   0.953   6.114
 1258SOL    HW215834   1.479   0.956   6.245
 1259SOL     OW15835   1.806   0.876   7.063
 1259SOL    HW115836   1.725   0.933   7.049
 1259SOL    HW215837   1.886   0.935   7.078
 1260SOL     OW15838   1.589   0.407   5.740
 1260SOL    HW115839   1.614   0.414   5.837
 1260SOL    HW215840   1.534   0.325   5.725
 1261SOL     OW15841   0.751   1.495   6.967
 1261SOL    HW115842   0.693   1.576   6.953
 1261SOL    HW215843   0.711   1.417   6.919
 1262SOL     OW15844   0.129   0.307   7.181
 1262SOL    HW115845   0.157   0.302   7.085
 1262SOL    HW215846   0.034   0.277   7.189
 1263SOL     OW15847   0.064   1.650   7.210
 1263SOL    HW115848   0.145   1.671   7.264
 1263SOL    HW215849   0.007   1.585   7.261
 1264SOL     OW15850   0.253   0.322   6.203
 1264SOL    HW115851   0.208   0.396   6.252
 1264SOL    HW215852   0.291   0.256   6.268
 1265SOL     OW15853   1.400   1.599   7.049
 1265SOL    HW115854   1.334   1.664   7.087
 1265SOL    HW215855   1.464   1.648   6.990
 1266SOL     OW15856   0.417   0.618   5.805
 1266SOL    HW115857   0.469   0.627   5.720
 1266SOL    HW215858   0.432   0.699   5.862
 1267SOL     OW15859   1.713   0.243   6.921
 1267SOL    HW115860   1.652   0.274   6.993
 1267SOL    HW215861   1.685   0.281   6.833
 1268SOL     OW15862   0.373   1.303   6.780
 1268SOL    HW115863   0.368   1.334   6.875
 1268SOL    HW215864   0.297   1.344   6.729
 1269SOL     OW15865   1.170   1.593   7.365
 1269SOL    HW115866   1.150   1.499   7.336
 1269SOL    HW215867   1.186   1.650   7.285
 1270SOL     OW15868   0.734   1.261   6.031
 1270SOL    HW115869   0.756   1.204   5.952
 1270SOL    HW215870   0.745   1.207   6.115
 1271SOL     OW15871   0.384   0.853   6.314
 1271SOL    HW115872   0.381   0.946   6.349
 1271SOL    HW215873   0.472   0.811   6.337
 1272SOL     OW15874   0.231   0.421   5.790
 1272SOL    HW115875   0.244   0.367   5.706
 1272SOL    HW215876   0.295   0.497   5.791
 1273SOL     OW15877   0.142   0.510   6.370
 1273SOL    HW115878   0.075   0.510   6.443
 1273SOL    HW215879   0.234   0.504   6.409
 1274SOL     OW15880   0.507   1.133   5.784
 1274SOL    HW115881   0.607   1.138   5.790
 1274SOL    HW215882   0.472   1.216   5.741
 1275SOL     OW15883   1.137   0.714   5.593
 1275SOL    HW115884   1.087   0.764   5.523
 1275SOL    HW215885   1.207   0.657   5.550
 1276SOL     OW15886   0.880   0.717   5.726
 1276SOL    HW115887   0.974   0.715   5.693
 1276SOL    HW215888   0.847   0.623   5.738
 1277SOL     OW15889   1.370   0.163   5.981
 1277SOL    HW115890   1.301   0.109   6.028
 1277SOL    HW215891   1.354   0.260   5.999
 1278SOL     OW15892   1.341   0.524   7.060
 1278SOL    HW115893   1.330   0.528   7.160
 1278SOL    HW215894   1.282   0.593   7.018
 1279SOL     OW15895   0.090   9.954   5.523
 1279SOL    HW115896   0.142   9.875   5.490
 1279SOL    HW215897   0.074   9.944   5.621
 1280SOL     OW15898   0.356   1.044   6.697
 1280SOL    HW115899   0.343   0.983   6.775
 1280SOL    HW215900   0.370   1.138   6.731
 1281SOL     OW15901   1.662   1.084   5.754
 1281SOL    HW115902   1.761   1.096   5.759
 1281SOL    HW215903   1.630   1.107   5.662
 1282SOL     OW15904   0.644   0.697   6.743
 1282SOL    HW115905   0.700   0.726   6.821
 1282SOL    HW215906   0.559   0.656   6.777
 1283SOL     OW15907   0.831   1.016   7.044
 1283SOL    HW115908   0.892   1.068   6.984
 1283SOL    HW215909   0.816   1.068   7.129
 1284SOL     OW15910   1.183   1.059   7.229
 1284SOL    HW115911   1.103   1.001   7.244
 1284SOL    HW215912   1.265   1.012   7.263
 1285SOL     OW15913   1.180   0.001   6.093
 1285SOL    HW115914   1.173   9.949   6.178
 1285SOL    HW215915   1.101   0.063   6.084
 1286SOL     OW15916   1.205   1.763   7.147
 1286SOL    HW115917   1.126   1.770   7.087
 1286SOL    HW215918   1.237   1.855   7.170
 1287SOL     OW15919   0.591   0.076   6.498
 1287SOL    HW115920   0.605   0.022   6.581
 1287SOL    HW215921   0.626   0.026   6.419
 1288SOL     OW15922   0.347   1.808   6.876
 1288SOL    HW115923   0.318   1.747   6.802
 1288SOL    HW215924   0.272   1.818   6.942
 1289SOL     OW15925   0.968   1.248   6.428
 1289SOL    HW115926   1.004   1.336   6.396
 1289SOL    HW215927   1.044   1.190   6.458
 1290SOL     OW15928   0.645   0.987   6.493
 1290SOL    HW115929   0.653   0.897   6.449
 1290SOL    HW215930   0.573   0.983   6.562
 1291SOL     OW15931   0.081   1.017   6.629
 1291SOL    HW115932   0.170   1.026   6.674
 1291SOL    HW215933   0.084   0.941   6.564
 1292SOL     OW15934   0.268   0.019   5.951
 1292SOL    HW115935   0.307   0.110   5.945
 1292SOL    HW215936   0.196   0.018   6.020
 1293SOL     OW15937   0.720   0.678   7.257
 1293SOL    HW115938   0.663   0.727   7.191
 1293SOL    HW215939   0.802   0.643   7.211
 1294SOL     OW15940   0.034   1.092   5.740
 1294SOL    HW115941   0.063   0.998   5.758
 1294SOL    HW215942   0.105   1.139   5.687
 1295SOL     OW15943   1.803   0.269   6.331
 1295SOL    HW115944   1.836   0.264   6.426
 1295SOL    HW215945   1.882   0.276   6.269
 1296SOL     OW15946   0.799   1.175   6.628
 1296SOL    HW115947   0.746   1.102   6.585
 1296SOL    HW215948   0.860   1.216   6.561
 1297SOL     OW15949   1.223   0.613   5.842
 1297SOL    HW115950   1.262   0.696   5.883
 1297SOL    HW215951   1.188   0.634   5.751
 1298SOL     OW15952   1.559   1.458   7.220
 1298SOL    HW115953   1.519   1.374   7.259
 1298SOL    HW215954   1.492   1.502   7.161
 1299SOL     OW15955   0.211   0.893   6.900
 1299SOL    HW115956   0.251   0.815   6.947
 1299SOL    HW215957   0.186   0.964   6.966
 1300SOL     OW15958   0.809   1.450   5.600
 1300SOL    HW115959   0.767   1.520   5.658
 1300SOL    HW215960   0.877   1.399   5.653
 1301SOL     OW15961   0.634   1.795   6.661
 1301SOL    HW115962   0.538   1.779   6.642
 1301SOL    HW215963   0.654   1.768   6.756
 1302SOL     OW15964   0.762   1.136   6.280
 1302SOL    HW115965   0.837   1.186   6.324
 1302SOL    HW215966   0.712   1.083   6.349
 1303SOL     OW15967   0.990   1.364   6.102
 1303SOL    HW115968   1.046   1.300   6.049
 1303SOL    HW215969   0.894   1.357   6.072
 1304SOL     OW15970   0.135   0.826   6.438
 1304SOL    HW115971   0.223   0.823   6.391
 1304SOL    HW215972   0.061   0.829   6.370
 1305SOL     OW15973   0.069   0.910   7.350
 1305SOL    HW115974   0.001   0.836   7.344
 1305SOL    HW215975   0.095   0.923   7.446
 1306SOL     OW15976   0.975   1.782   6.990
 1306SOL    HW115977   0.937   1.720   7.058
 1306SOL    HW215978   0.910   1.856   6.971
 1307SOL     OW15979   1.151   1.070   6.533
 1307SOL    HW115980   1.196   1.076   6.623
 1307SOL    HW215981   1.101   0.983   6.527
 1308SOL     OW15982   0.501   0.453   7.309
 1308SOL    HW115983   0.586   0.439   7.258
 1308SOL    HW215984   0.505   0.541   7.356
 1309SOL     OW15985   0.491   0.883   5.909
 1309SOL    HW115986   0.490   0.973   5.864
 1309SOL    HW215987   0.412   0.875   5.970
 1310SOL     OW15988   1.566   0.954   6.536
 1310SOL    HW115989   1.611   1.029   6.487
 1310SOL    HW215990   1.526   0.989   6.621
 1311SOL     OW15991   1.363   0.314   6.889
 1311SOL    HW115992   1.343   0.395   6.943
 1311SOL    HW215993   1.295   0.243   6.909
 1312SOL     OW15994   0.039   0.061   6.107
 1312SOL    HW115995   9.957   0.015   6.075
 1312SOL    HW215996   0.045   0.152   6.066
 1313SOL     OW15997   1.088   0.131   7.292
 1313SOL    HW115998   1.145   0.201   7.336
 1313SOL    HW215999   0.995   0.166   7.280
 1314SOL     OW16000   0.474   1.592   7.177
 1314SOL    HW116001   0.413   1.646   7.236
 1314SOL    HW216002   0.522   1.654   7.115
 1315SOL     OW16003   1.786   1.473   7.068
 1315SOL    HW116004   1.834   1.557   7.094
 1315SOL    HW216005   1.704   1.463   7.124
 1316SOL     OW16006   1.047   0.511   6.632
 1316SOL    HW116007   1.130   0.559   6.660
 1316SOL    HW216008   1.045   0.420   6.673
 1317SOL     OW16009   0.362   1.485   6.117
 1317SOL    HW116010   0.377   1.403   6.172
 1317SOL    HW216011   0.273   1.480   6.073
 1318SOL     OW16012   1.087   1.602   6.704
 1318SOL    HW116013   1.025   1.628   6.629
 1318SOL    HW216014   1.040   1.614   6.791
 1319SOL     OW16015   0.293   1.725   7.355
 1319SOL    HW116016   0.307   1.824   7.360
 1319SOL    HW216017   0.296   1.687   7.447
 1320SOL     OW16018   0.159   1.304   7.204
 1320SOL    HW116019   0.152   1.207   7.184
 1320SOL    HW216020   0.093   1.355   7.149
 1321SOL     OW16021   0.268   1.646   6.670
 1321SOL    HW116022   0.227   1.555   6.674
 1321SOL    HW216023   0.251   1.687   6.581
 1322SOL     OW16024   0.966   0.178   6.414
 1322SOL    HW116025   1.061   0.209   6.418
 1322SOL    HW216026   0.946   0.121   6.493
 1323SOL     OW16027   1.111   1.164   5.962
 1323SOL    HW116028   1.208   1.163   5.984
 1323SOL    HW216029   1.065   1.086   6.004
 1324SOL     OW16030   1.619   0.474   6.292
 1324SOL    HW116031   1.643   0.549   6.353
 1324SOL    HW216032   1.679   0.396   6.310
 1325SOL     OW16033   0.781   1.132   5.786
 1325SOL    HW116034   0.858   1.194   5.767
 1325SOL    HW216035   0.787   1.052   5.726
 1326SOL     OW16036   0.769   0.214   5.670
 1326SOL    HW116037   0.803   0.151   5.740
 1326SOL    HW216038   0.782   0.308   5.700
 1327SOL     OW16039   0.580   0.436   6.288
 1327SOL    HW116040   0.655   0.370   6.284
 1327SOL    HW216041   0.601   0.515   6.230
 1328SOL     OW16042   0.574   1.069   6.981
 1328SOL    HW116043   0.667   1.043   7.006
 1328SOL    HW216044   0.576   1.153   6.926
 1329SOL     OW16045   1.747   1.117   6.866
 1329SOL    HW116046   1.747   1.214   6.845
 1329SOL    HW216047   1.806   1.068   6.802
 1330SOL     OW16048   0.248   1.196   5.600
 1330SOL    HW116049   0.282   1.171   5.510
 1330SOL    HW216050   0.300   1.274   5.635
 1331SOL     OW16051   0.671   1.624   5.764
 1331SOL    HW116052   0.604   1.696   5.749
 1331SOL    HW216053   0.638   1.560   5.833
 1332SOL     OW16054   1.324   1.115   7.001
 1332SOL    HW116055   1.268   1.083   7.076
 1332SOL    HW216056   1.309   1.212   6.986
 1333SOL     OW16057   0.598   1.733   6.954
 1333SOL    HW116058   0.651   1.816   6.970
 1333SOL    HW216059   0.505   1.758   6.925
 1334SOL     OW16060   0.155   0.572   7.235
 1334SOL    HW116061   0.147   0.474   7.220
 1334SOL    HW216062   0.205   0.588   7.321
 1335SOL     OW16063   1.681   1.539   6.583
 1335SOL    HW116064   1.709   1.629   6.618
 1335SOL    HW216065   1.694   1.470   6.654
 1336SOL     OW16066   9.995   0.882   6.141
 1336SOL    HW116067   0.026   0.973   6.114
 1336SOL    HW216068   9.901   0.868   6.110
 1337SOL     OW16069   0.552   0.809   7.088
 1337SOL    HW116070   0.463   0.765   7.077
 1337SOL    HW216071   0.551   0.899   7.044
 1338SOL     OW16072   1.654   1.174   6.382
 1338SOL    HW116073   1.633   1.270   6.364
 1338SOL    HW216074   1.625   1.119   6.303
 1339SOL     OW16075   0.784   0.574   6.547
 1339SOL    HW116076   0.877   0.551   6.576
 1339SOL    HW216077   0.736   0.619   6.623
 1340SOL     OW16078   0.642   1.291   6.821
 1340SOL    HW116079   0.549   1.305   6.788
 1340SOL    HW216080   0.698   1.255   6.746
 1341SOL     OW16081   0.208   0.704   6.680
 1341SOL    HW116082   0.203   0.776   6.749
 1341SOL    HW216083   0.184   0.742   6.590
 1342SOL     OW16084   0.361   1.386   7.036
 1342SOL    HW116085   0.406   1.465   7.077
 1342SOL    HW216086   0.288   1.355   7.096
 1343SOL     OW16087   1.655   1.693   7.333
 1343SOL    HW116088   1.622   1.603   7.306
 1343SOL    HW216089   1.624   1.761   7.266
 1344SOL     OW16090   1.385   1.183   6.003
 1344SOL    HW116091   1.476   1.201   6.038
 1344SOL    HW216092   1.384   1.194   5.903
 1345SOL     OW16093   0.658   0.375   5.996
 1345SOL    HW116094   0.566   0.338   5.981
 1345SOL    HW216095   0.702   0.328   6.071
 1346SOL     OW16096   1.617   0.071   6.306
 1346SOL    HW116097   1.611   0.051   6.208
 1346SOL    HW216098   1.680   0.147   6.321
 1347SOL     OW16099   1.186   0.727   6.955
 1347SOL    HW116100   1.278   0.760   6.934
 1347SOL    HW216101   1.120   0.772   6.894
 1348SOL     OW16102   0.654   0.746   6.366
 1348SOL    HW116103   0.690   0.677   6.430
 1348SOL    HW216104   0.665   0.712   6.272
 1349SOL     OW16105   1.333   1.554   6.597
 1349SOL    HW116106   1.240   1.561   6.634
 1349SOL    HW216107   1.329   1.540   6.498
 1350SOL     OW16108   1.338   0.464   6.269
 1350SOL    HW116109   1.330   0.458   6.169
 1350SOL    HW216110   1.435   0.468   6.294
 1351SOL     OW16111   1.087   1.465   8.142
 1351SOL    HW116112   1.181   1.498   8.142
 1351SOL    HW216113   1.043   1.488   8.055
 1352SOL     OW16114   1.618   1.287   7.946
 1352SOL    HW116115   1.620   1.355   8.019
 1352SOL    HW216116   1.710   1.251   7.931
 1353SOL     OW16117   1.616   0.612   8.834
 1353SOL    HW116118   1.528   0.582   8.871
 1353SOL    HW216119   1.682   0.622   8.908
 1354SOL     OW16120   0.318   0.272   7.376
 1354SOL    HW116121   0.245   0.268   7.307
 1354SOL    HW216122   0.387   0.338   7.347
 1355SOL     OW16123   1.347   1.559   8.189
 1355SOL    HW116124   1.359   1.656   8.211
 1355SOL    HW216125   1.436   1.519   8.168
 1356SOL     OW16126   1.192   0.070   8.757
 1356SOL    HW116127   1.139   0.020   8.825
 1356SOL    HW216128   1.273   0.018   8.732
 1357SOL     OW16129   0.993   0.844   9.105
 1357SOL    HW116130   0.988   0.766   9.042
 1357SOL    HW216131   0.901   0.875   9.128
 1358SOL     OW16132   0.579   1.494   7.822
 1358SOL    HW116133   0.539   1.518   7.910
 1358SOL    HW216134   0.650   1.425   7.835
 1359SOL     OW16135   0.503   0.100   7.481
 1359SOL    HW116136   0.583   0.159   7.493
 1359SOL    HW216137   0.429   0.154   7.440
 1360SOL     OW16138   1.572   1.051   8.924
 1360SOL    HW116139   1.477   1.069   8.899
 1360SOL    HW216140   1.633   1.091   8.856
 1361SOL     OW16141   1.439   1.056   8.597
 1361SOL    HW116142   1.383   1.057   8.680
 1361SOL    HW216143   1.487   1.143   8.589
 1362SOL     OW16144   1.003   1.348   8.848
 1362SOL    HW116145   0.917   1.398   8.838
 1362SOL    HW216146   1.001   1.266   8.790
 1363SOL     OW16147   0.514   1.227   8.100
 1363SOL    HW116148   0.468   1.173   8.170
 1363SOL    HW216149   0.613   1.210   8.104
 1364SOL     OW16150   0.735   0.652   7.958
 1364SOL    HW116151   0.755   0.731   7.900
 1364SOL    HW216152   0.724   0.571   7.900
 1365SOL     OW16153   1.322   0.521   9.203
 1365SOL    HW116154   1.421   0.522   9.197
 1365SOL    HW216155   1.293   0.447   9.264
 1366SOL     OW16156   0.425   1.402   7.534
 1366SOL    HW116157   0.484   1.400   7.454
 1366SOL    HW216158   0.446   1.483   7.589
 1367SOL     OW16159   0.624   0.366   8.469
 1367SOL    HW116160   0.694   0.425   8.429
 1367SOL    HW216161   0.640   0.272   8.440
 1368SOL     OW16162   0.321   0.805   7.881
 1368SOL    HW116163   0.361   0.807   7.972
 1368SOL    HW216164   0.223   0.823   7.887
 1369SOL     OW16165   0.761   1.716   7.996
 1369SOL    HW116166   0.828   1.648   7.965
 1369SOL    HW216167   0.755   1.790   7.929
 1370SOL     OW16168   1.804   1.621   7.807
 1370SOL    HW116169   1.895   1.580   7.797
 1370SOL    HW216170   1.770   1.650   7.718
 1371SOL     OW16171   1.668   0.346   8.527
 1371SOL    HW116172   1.695   0.441   8.542
 1371SOL    HW216173   1.574   0.342   8.495
 1372SOL     OW16174   1.080   0.348   7.717
 1372SOL    HW116175   1.123   0.421   7.771
 1372SOL    HW216176   1.047   0.276   7.779
 1373SOL     OW16177   0.242   1.043   8.973
 1373SOL    HW116178   0.325   1.095   8.994
 1373SOL    HW216179   0.193   1.022   9.058
 1374SOL     OW16180   0.521   0.699   7.442
 1374SOL    HW116181   0.492   0.795   7.442
 1374SOL    HW216182   0.604   0.689   7.387
 1375SOL     OW16183   0.689   1.599   8.231
 1375SOL    HW116184   0.730   1.649   8.155
 1375SOL    HW216185   0.606   1.553   8.200
 1376SOL     OW16186   0.998   0.613   8.957
 1376SOL    HW116187   1.011   0.533   9.016
 1376SOL    HW216188   1.082   0.629   8.905
 1377SOL     OW16189   1.615   1.461   8.178
 1377SOL    HW116190   1.622   1.479   8.276
 1377SOL    HW216191   1.676   1.523   8.129
 1378SOL     OW16192   0.362   1.248   7.874
 1378SOL    HW116193   0.422   1.241   7.953
 1378SOL    HW216194   0.411   1.218   7.792
 1379SOL     OW16195   1.212   0.316   7.477
 1379SOL    HW116196   1.298   0.266   7.493
 1379SOL    HW216197   1.165   0.329   7.564
 1380SOL     OW16198   0.435   0.620   8.635
 1380SOL    HW116199   0.427   0.521   8.649
 1380SOL    HW216200   0.356   0.653   8.583
 1381SOL     OW16201   1.449   0.782   8.687
 1381SOL    HW116202   1.471   0.876   8.660
 1381SOL    HW216203   1.527   0.740   8.733
 1382SOL     OW16204   0.453   0.356   7.835
 1382SOL    HW116205   0.403   0.347   7.921
 1382SOL    HW216206   0.388   0.350   7.758
 1383SOL     OW16207   1.561   1.744   8.701
 1383SOL    HW116208   1.485   1.750   8.636
 1383SOL    HW216209   1.648   1.741   8.651
 1384SOL     OW16210   1.746   0.597   8.589
 1384SOL    HW116211   1.837   0.639   8.590
 1384SOL    HW216212   1.704   0.606   8.679
 1385SOL     OW16213   1.819   1.730   8.558
 1385SOL    HW116214   1.867   1.750   8.643
 1385SOL    HW216215   1.885   1.716   8.485
 1386SOL     OW16216   0.982   0.517   8.002
 1386SOL    HW116217   1.047   0.543   8.073
 1386SOL    HW216218   0.916   0.590   7.988
 1387SOL     OW16219   1.257   0.977   7.538
 1387SOL    HW116220   1.276   0.940   7.629
 1387SOL    HW216221   1.220   0.905   7.480
 1388SOL     OW16222   1.017   0.410   9.163
 1388SOL    HW116223   1.099   0.396   9.218
 1388SOL    HW216224   0.939   0.427   9.223
 1389SOL     OW16225   1.746   0.713   7.785
 1389SOL    HW116226   1.699   0.625   7.791
 1389SOL    HW216227   1.817   0.719   7.854
 1390SOL     OW16228   1.002   1.766   7.521
 1390SOL    HW116229   1.044   1.716   7.445
 1390SOL    HW216230   1.026   1.723   7.607
 1391SOL     OW16231   0.823   0.075   9.065
 1391SOL    HW116232   0.889   0.002   9.045
 1391SOL    HW216233   0.824   0.095   9.163
 1392SOL     OW16234   1.705   0.669   8.323
 1392SOL    HW116235   1.673   0.763   8.323
 1392SOL    HW216236   1.712   0.636   8.417
 1393SOL     OW16237   1.113   1.321   9.113
 1393SOL    HW116238   1.154   1.229   9.106
 1393SOL    HW216239   1.064   1.341   9.028
 1394SOL     OW16240   0.846   1.128   9.140
 1394SOL    HW116241   0.890   1.186   9.209
 1394SOL    HW216242   0.799   1.052   9.186
 1395SOL     OW16243   1.379   0.017   8.304
 1395SOL    HW116244   1.317   0.095   8.295
 1395SOL    HW216245   1.459   0.030   8.245
 1396SOL     OW16246   1.776   0.235   9.164
 1396SOL    HW116247   1.782   0.204   9.259
 1396SOL    HW216248   1.730   0.165   9.109
 1397SOL     OW16249   0.026   0.614   7.991
 1397SOL    HW116250   0.076   0.570   8.066
 1397SOL    HW216251   0.044   0.712   7.992
 1398SOL     OW16252   0.391   0.197   8.282
 1398SOL    HW116253   0.396   0.293   8.308
 1398SOL    HW216254   0.473   0.150   8.313
 1399SOL     OW16255   0.423   0.338   8.649
 1399SOL    HW116256   0.399   0.242   8.661
 1399SOL    HW216257   0.503   0.344   8.588
 1400SOL     OW16258   1.131   0.804   8.338
 1400SOL    HW116259   1.068   0.869   8.295
 1400SOL    HW216260   1.131   0.718   8.287
 1401SOL     OW16261   0.250   1.509   7.843
 1401SOL    HW116262   0.288   1.416   7.846
 1401SOL    HW216263   0.285   1.556   7.762
 1402SOL     OW16264   1.470   1.340   8.619
 1402SOL    HW116265   1.429   1.379   8.536
 1402SOL    HW216266   1.405   1.349   8.694
 1403SOL     OW16267   0.240   1.665   8.067
 1403SOL    HW116268   0.175   1.741   8.060
 1403SOL    HW216269   0.238   1.611   7.984
 1404SOL     OW16270   1.730   1.397   8.671
 1404SOL    HW116271   1.749   1.433   8.762
 1404SOL    HW216272   1.632   1.379   8.662
 1405SOL     OW16273   0.487   0.973   7.432
 1405SOL    HW116274   0.459   1.015   7.346
 1405SOL    HW216275   0.477   1.039   7.506
 1406SOL     OW16276   0.978   1.127   8.684
 1406SOL    HW116277   1.027   1.044   8.659
 1406SOL    HW216278   0.919   1.154   8.608
 1407SOL     OW16279   0.145   0.912   7.617
 1407SOL    HW116280   0.243   0.895   7.626
 1407SOL    HW216281   0.094   0.832   7.650
 1408SOL     OW16282   1.577   0.929   7.806
 1408SOL    HW116283   1.639   0.850   7.799
 1408SOL    HW216284   1.596   0.993   7.731
 1409SOL     OW16285   0.895   1.833   8.399
 1409SOL    HW116286   0.932   1.743   8.378
 1409SOL    HW216287   0.814   1.824   8.457
 1410SOL     OW16288   0.764   0.943   7.456
 1410SOL    HW116289   0.801   0.858   7.492
 1410SOL    HW216290   0.665   0.934   7.445
 1411SOL     OW16291   1.375   0.424   7.826
 1411SOL    HW116292   1.329   0.491   7.767
 1411SOL    HW216293   1.473   0.442   7.827
 1412SOL     OW16294   0.150   0.644   8.831
 1412SOL    HW116295   0.155   0.553   8.790
 1412SOL    HW216296   0.173   0.639   8.928
 1413SOL     OW16297   0.172   0.377   8.749
 1413SOL    HW116298   0.266   0.370   8.718
 1413SOL    HW216299   0.113   0.321   8.692
 1414SOL     OW16300   1.055   0.867   8.610
 1414SOL    HW116301   1.075   0.837   8.517
 1414SOL    HW216302   0.971   0.824   8.643
 1415SOL     OW16303   1.652   0.456   7.856
 1415SOL    HW116304   1.740   0.412   7.839
 1415SOL    HW216305   1.638   0.467   7.954
 1416SOL     OW16306   0.940   1.567   8.347
 1416SOL    HW116307   0.997   1.530   8.274
 1416SOL    HW216308   0.844   1.565   8.320
 1417SOL     OW16309   0.857   0.452   7.606
 1417SOL    HW116310   0.792   0.450   7.681
 1417SOL    HW216311   0.946   0.420   7.638
 1418SOL     OW16312   0.992   1.311   7.536
 1418SOL    HW116313   1.043   1.292   7.620
 1418SOL    HW216314   1.054   1.307   7.457
 1419SOL     OW16315   1.779   1.651   8.074
 1419SOL    HW116316   1.731   1.735   8.101
 1419SOL    HW216317   1.783   1.645   7.975
 1420SOL     OW16318   1.169   0.907   7.986
 1420SOL    HW116319   1.222   0.950   8.061
 1420SOL    HW216320   1.089   0.963   7.966
 1421SOL     OW16321   0.868   1.605   9.014
 1421SOL    HW116322   0.819   1.549   8.948
 1421SOL    HW216323   0.861   1.564   9.105
 1422SOL     OW16324   1.316   0.981   8.206
 1422SOL    HW116325   1.284   0.899   8.255
 1422SOL    HW216326   1.302   1.062   8.263
 1423SOL     OW16327   0.364   1.081   8.278
 1423SOL    HW116328   0.284   1.129   8.241
 1423SOL    HW216329   0.350   1.064   8.375
 1424SOL     OW16330   0.940   1.041   7.922
 1424SOL    HW116331   0.891   0.973   7.868
 1424SOL    HW216332   0.882   1.072   7.998
 1425SOL     OW16333   1.275   1.374   8.808
 1425SOL    HW116334   1.313   1.462   8.838
 1425SOL    HW216335   1.176   1.376   8.819
 1426SOL     OW16336   0.180   0.188   7.831
 1426SOL    HW116337   0.192   0.246   7.750
 1426SOL    HW216338   0.218   0.234   7.911
 1427SOL     OW16339   1.672   1.787   7.592
 1427SOL    HW116340   1.759   1.836   7.587
 1427SOL    HW216341   1.654   1.742   7.505
 1428SOL     OW16342   0.855   0.768   8.777
 1428SOL    HW116343   0.840   0.855   8.824
 1428SOL    HW216344   0.893   0.702   8.841
 1429SOL     OW16345   0.187   1.778   8.755
 1429SOL    HW116346   0.113   1.822   8.704
 1429SOL    HW216347   0.156   1.760   8.849
 1430SOL     OW16348   0.794   0.854   7.785
 1430SOL    HW116349   0.699   0.877   7.765
 1430SOL    HW216350   0.835   0.811   7.705
 1431SOL     OW16351   0.409   0.474   8.310
 1431SOL    HW116352   0.474   0.473   8.234
 1431SOL    HW216353   0.458   0.479   8.397
 1432SOL     OW16354   0.345   1.689   7.634
 1432SOL    HW116355   0.425   1.735   7.594
 1432SOL    HW216356   0.307   1.746   7.707
 1433SOL     OW16357   1.343   1.753   8.531
 1433SOL    HW116358   1.368   1.771   8.436
 1433SOL    HW216359   1.265   1.691   8.534
 1434SOL     OW16360   0.128   1.210   8.217
 1434SOL    HW116361   0.100   1.195   8.122
 1434SOL    HW216362   0.068   1.159   8.278
 1435SOL     OW16363   0.779   0.008   7.729
 1435SOL    HW116364   0.811   9.945   7.657
 1435SOL    HW216365   0.680   0.002   7.737
 1436SOL     OW16366   0.112   1.157   7.938
 1436SOL    HW116367   0.205   1.192   7.928
 1436SOL    HW216368   0.064   1.164   7.851
 1437SOL     OW16369   1.534   0.322   8.966
 1437SOL    HW116370   1.465   0.392   8.948
 1437SOL    HW216371   1.587   0.346   9.047
 1438SOL     OW16372   1.238   0.257   8.290
 1438SOL    HW116373   1.271   0.303   8.207
 1438SOL    HW216374   1.286   0.293   8.370
 1439SOL     OW16375   1.439   0.177   7.554
 1439SOL    HW116376   1.494   0.102   7.518
 1439SOL    HW216377   1.410   0.155   7.647
 1440SOL     OW16378   1.627   0.058   9.019
 1440SOL    HW116379   1.644   0.000   8.940
 1440SOL    HW216380   1.577   0.140   8.991
 1441SOL     OW16381   0.837   0.303   8.076
 1441SOL    HW116382   0.872   0.255   8.157
 1441SOL    HW216383   0.896   0.381   8.055
 1442SOL     OW16384   1.299   0.641   8.503
 1442SOL    HW116385   1.257   0.708   8.442
 1442SOL    HW216386   1.357   0.687   8.570
 1443SOL     OW16387   1.589   0.021   7.875
 1443SOL    HW116388   1.600   9.955   7.800
 1443SOL    HW216389   1.504   0.073   7.860
 1444SOL     OW16390   0.566   1.407   9.160
 1444SOL    HW116391   0.531   1.475   9.094
 1444SOL    HW216392   0.660   1.431   9.184
 1445SOL     OW16393   0.479   1.156   9.068
 1445SOL    HW116394   0.520   1.129   8.981
 1445SOL    HW216395   0.512   1.247   9.093
 1446SOL     OW16396   0.168   1.406   8.413
 1446SOL    HW116397   0.161   1.341   8.338
 1446SOL    HW216398   0.083   1.404   8.467
 1447SOL     OW16399   1.144   0.563   8.216
 1447SOL    HW116400   1.225   0.517   8.179
 1447SOL    HW216401   1.113   0.515   8.298
 1448SOL     OW16402   1.792   0.646   9.063
 1448SOL    HW116403   1.793   0.732   9.011
 1448SOL    HW216404   1.881   0.634   9.108
 1449SOL     OW16405   1.392   0.380   8.485
 1449SOL    HW116406   1.363   0.475   8.490
 1449SOL    HW216407   1.388   0.338   8.576
 1450SOL     OW16408   1.590   0.499   9.176
 1450SOL    HW116409   1.672   0.548   9.146
 1450SOL    HW216410   1.608   0.451   9.261
 1451SOL     OW16411   1.319   0.851   7.772
 1451SOL    HW116412   1.262   0.870   7.853
 1451SOL    HW216413   1.413   0.881   7.791
 1452SOL     OW16414   1.564   0.983   8.075
 1452SOL    HW116415   1.559   0.971   7.976
 1452SOL    HW216416   1.473   0.973   8.114
 1453SOL     OW16417   1.783   0.866   8.909
 1453SOL    HW116418   1.700   0.922   8.898
 1453SOL    HW216419   1.863   0.926   8.915
 1454SOL     OW16420   1.591   0.412   7.577
 1454SOL    HW116421   1.620   0.423   7.672
 1454SOL    HW216422   1.543   0.325   7.568
 1455SOL     OW16423   0.750   1.467   8.810
 1455SOL    HW116424   0.697   1.549   8.791
 1455SOL    HW216425   0.708   1.388   8.764
 1456SOL     OW16426   0.159   0.344   9.032
 1456SOL    HW116427   0.178   0.345   8.934
 1456SOL    HW216428   0.062   0.327   9.048
 1457SOL     OW16429   0.097   1.780   9.033
 1457SOL    HW116430   0.193   1.788   9.060
 1457SOL    HW216431   0.047   1.728   9.103
 1458SOL     OW16432   0.281   0.309   8.050
 1458SOL    HW116433   0.225   0.380   8.094
 1458SOL    HW216434   0.333   0.260   8.120
 1459SOL     OW16435   1.394   1.604   8.886
 1459SOL    HW116436   1.332   1.669   8.929
 1459SOL    HW216437   1.457   1.654   8.825
 1460SOL     OW16438   0.339   0.624   7.645
 1460SOL    HW116439   0.410   0.646   7.578
 1460SOL    HW216440   0.357   0.672   7.731
 1461SOL     OW16441   1.757   0.308   8.787
 1461SOL    HW116442   1.683   0.323   8.852
 1461SOL    HW216443   1.721   0.310   8.694
 1462SOL     OW16444   0.502   1.819   8.088
 1462SOL    HW116445   0.418   1.765   8.074
 1462SOL    HW216446   0.577   1.776   8.037
 1463SOL     OW16447   0.360   1.321   8.606
 1463SOL    HW116448   0.340   1.352   8.699
 1463SOL    HW216449   0.300   1.368   8.542
 1464SOL     OW16450   1.177   1.580   9.209
 1464SOL    HW116451   1.156   1.488   9.179
 1464SOL    HW216452   1.184   1.641   9.130
 1465SOL     OW16453   0.769   1.303   7.870
 1465SOL    HW116454   0.783   1.245   7.789
 1465SOL    HW216455   0.780   1.247   7.952
 1466SOL     OW16456   0.417   0.843   8.140
 1466SOL    HW116457   0.408   0.932   8.184
 1466SOL    HW216458   0.503   0.800   8.168
 1467SOL     OW16459   0.266   0.358   7.631
 1467SOL    HW116460   0.277   0.321   7.539
 1467SOL    HW216461   0.286   0.456   7.630
 1468SOL     OW16462   0.156   0.503   8.208
 1468SOL    HW116463   0.089   0.517   8.280
 1468SOL    HW216464   0.248   0.505   8.247
 1469SOL     OW16465   0.505   1.167   7.642
 1469SOL    HW116466   0.605   1.172   7.643
 1469SOL    HW216467   0.467   1.251   7.604
 1470SOL     OW16468   1.149   0.720   7.436
 1470SOL    HW116469   1.096   0.775   7.372
 1470SOL    HW216470   1.214   0.663   7.386
 1471SOL     OW16471   0.893   0.724   7.564
 1471SOL    HW116472   0.988   0.730   7.531
 1471SOL    HW216473   0.867   0.628   7.573
 1472SOL     OW16474   1.355   0.151   7.814
 1472SOL    HW116475   1.295   0.113   7.885
 1472SOL    HW216476   1.355   0.251   7.820
 1473SOL     OW16477   1.364   0.531   8.930
 1473SOL    HW116478   1.340   0.539   9.027
 1473SOL    HW216479   1.303   0.590   8.876
 1474SOL     OW16480   0.049   9.968   7.412
 1474SOL    HW116481   0.117   9.907   7.372
 1474SOL    HW216482   0.039   9.948   7.509
 1475SOL     OW16483   0.291   1.064   8.541
 1475SOL    HW116484   0.286   1.003   8.620
 1475SOL    HW216485   0.320   1.155   8.572
 1476SOL     OW16486   1.646   1.073   7.584
 1476SOL    HW116487   1.738   1.106   7.605
 1476SOL    HW216488   1.637   1.056   7.486
 1477SOL     OW16489   0.686   0.716   8.568
 1477SOL    HW116490   0.737   0.738   8.651
 1477SOL    HW216491   0.594   0.686   8.594
 1478SOL     OW16492   0.839   1.017   8.892
 1478SOL    HW116493   0.894   1.064   8.824
 1478SOL    HW216494   0.848   1.064   8.980
 1479SOL     OW16495   1.179   1.048   9.069
 1479SOL    HW116496   1.100   0.987   9.076
 1479SOL    HW216497   1.261   1.000   9.101
 1480SOL     OW16498   1.187   0.042   7.987
 1480SOL    HW116499   1.177   9.975   8.061
 1480SOL    HW216500   1.097   0.077   7.961
 1481SOL     OW16501   1.197   1.759   9.000
 1481SOL    HW116502   1.127   1.762   8.929
 1481SOL    HW216503   1.204   1.848   9.045
 1482SOL     OW16504   0.632   0.097   8.398
 1482SOL    HW116505   0.610   0.033   8.472
 1482SOL    HW216506   0.722   0.075   8.361
 1483SOL     OW16507   0.395   1.715   8.588
 1483SOL    HW116508   0.354   1.690   8.500
 1483SOL    HW216509   0.323   1.737   8.653
 1484SOL     OW16510   1.011   1.234   8.268
 1484SOL    HW116511   1.038   1.317   8.219
 1484SOL    HW216512   1.090   1.196   8.316
 1485SOL     OW16513   0.672   0.995   8.321
 1485SOL    HW116514   0.684   0.902   8.287
 1485SOL    HW216515   0.589   1.000   8.375
 1486SOL     OW16516   0.026   1.083   8.448
 1486SOL    HW116517   0.120   1.074   8.483
 1486SOL    HW216518   9.980   0.994   8.454
 1487SOL     OW16519   0.246   9.927   7.793
 1487SOL    HW116520   0.226   0.025   7.802
 1487SOL    HW216521   0.229   9.882   7.881
 1488SOL     OW16522   0.605   0.684   9.089
 1488SOL    HW116523   0.572   0.712   8.998
 1488SOL    HW216524   0.667   0.754   9.124
 1489SOL     OW16525   0.046   1.162   7.666
 1489SOL    HW116526   0.079   1.069   7.646
 1489SOL    HW216527   0.086   1.226   7.600
 1490SOL     OW16528   1.790   0.250   8.192
 1490SOL    HW116529   1.826   0.232   8.283
 1490SOL    HW216530   1.865   0.260   8.127
 1491SOL     OW16531   0.817   1.184   8.464
 1491SOL    HW116532   0.768   1.110   8.418
 1491SOL    HW216533   0.885   1.223   8.402
 1492SOL     OW16534   1.242   0.610   7.677
 1492SOL    HW116535   1.272   0.693   7.724
 1492SOL    HW216536   1.203   0.634   7.588
 1493SOL     OW16537   1.542   1.453   9.061
 1493SOL    HW116538   1.500   1.371   9.098
 1493SOL    HW216539   1.478   1.499   9.000
 1494SOL     OW16540   0.246   0.888   8.745
 1494SOL    HW116541   0.222   0.795   8.774
 1494SOL    HW216542   0.256   0.946   8.825
 1495SOL     OW16543   0.817   1.483   7.414
 1495SOL    HW116544   0.767   1.536   7.483
 1495SOL    HW216545   0.884   1.425   7.459
 1496SOL     OW16546   0.645   1.742   8.468
 1496SOL    HW116547   0.648   1.684   8.387
 1496SOL    HW216548   0.554   1.737   8.509
 1497SOL     OW16549   0.788   1.151   8.125
 1497SOL    HW116550   0.868   1.192   8.169
 1497SOL    HW216551   0.743   1.089   8.189
 1498SOL     OW16552   0.943   1.520   7.910
 1498SOL    HW116553   1.008   1.538   7.836
 1498SOL    HW216554   0.887   1.441   7.887
 1499SOL     OW16555   0.161   0.831   8.253
 1499SOL    HW116556   0.251   0.819   8.212
 1499SOL    HW216557   0.093   0.846   8.182
 1500SOL     OW16558   0.091   0.998   9.200
 1500SOL    HW116559   0.045   0.915   9.167
 1500SOL    HW216560   0.122   0.984   9.294
 1501SOL     OW16561   0.992   1.742   8.801
 1501SOL    HW116562   0.956   1.685   8.874
 1501SOL    HW216563   0.922   1.807   8.771
 1502SOL     OW16564   1.249   1.162   8.401
 1502SOL    HW116565   1.265   1.260   8.411
 1502SOL    HW216566   1.299   1.113   8.473
 1503SOL     OW16567   0.553   0.426   9.153
 1503SOL    HW116568   0.605   0.368   9.090
 1503SOL    HW216569   0.574   0.522   9.134
 1504SOL     OW16570   0.534   0.912   7.747
 1504SOL    HW116571   0.512   1.005   7.717
 1504SOL    HW216572   0.456   0.874   7.798
 1505SOL     OW16573   1.619   0.938   8.390
 1505SOL    HW116574   1.630   1.019   8.332
 1505SOL    HW216575   1.557   0.961   8.466
 1506SOL     OW16576   1.401   0.255   8.727
 1506SOL    HW116577   1.446   0.281   8.813
 1506SOL    HW216578   1.311   0.215   8.747
 1507SOL     OW16579   0.020   0.072   8.024
 1507SOL    HW116580   9.924   0.061   7.999
 1507SOL    HW216581   0.068   0.122   7.952
 1508SOL     OW16582   1.122   0.143   9.135
 1508SOL    HW116583   1.199   0.179   9.188
 1508SOL    HW216584   1.058   0.217   9.115
 1509SOL     OW16585   0.462   1.595   8.990
 1509SOL    HW116586   0.419   1.669   9.042
 1509SOL    HW216587   0.515   1.634   8.914
 1510SOL     OW16588   1.779   1.471   8.928
 1510SOL    HW116589   1.826   1.555   8.956
 1510SOL    HW216590   1.694   1.463   8.979
 1511SOL     OW16591   1.061   0.495   8.472
 1511SOL    HW116592   1.142   0.546   8.502
 1511SOL    HW216593   1.055   0.409   8.523
 1512SOL     OW16594   0.476   1.499   8.087
 1512SOL    HW116595   0.477   1.399   8.095
 1512SOL    HW216596   0.381   1.531   8.091
 1513SOL     OW16597   1.112   1.601   8.558
 1513SOL    HW116598   1.069   1.629   8.644
 1513SOL    HW216599   1.042   1.586   8.489
 1514SOL     OW16600   0.347   1.794   9.143
 1514SOL    HW116601   0.374   1.890   9.150
 1514SOL    HW216602   0.344   1.754   9.235
 1515SOL     OW16603   0.067   1.376   9.015
 1515SOL    HW116604   0.003   1.311   9.055
 1515SOL    HW216605   0.022   1.425   8.940
 1516SOL     OW16606   0.274   1.650   8.347
 1516SOL    HW116607   0.236   1.561   8.373
 1516SOL    HW216608   0.269   1.660   8.248
 1517SOL     OW16609   0.965   0.183   8.286
 1517SOL    HW116610   1.061   0.211   8.289
 1517SOL    HW216611   0.948   0.113   8.355
 1518SOL     OW16612   1.090   1.236   7.783
 1518SOL    HW116613   1.182   1.243   7.820
 1518SOL    HW216614   1.039   1.165   7.832
 1519SOL     OW16615   1.627   0.470   8.135
 1519SOL    HW116616   1.646   0.546   8.196
 1519SOL    HW216617   1.680   0.390   8.163
 1520SOL     OW16618   0.779   1.165   7.624
 1520SOL    HW116619   0.853   1.224   7.594
 1520SOL    HW216620   0.785   1.076   7.578
 1521SOL     OW16621   0.752   0.206   7.536
 1521SOL    HW116622   0.771   0.148   7.615
 1521SOL    HW216623   0.783   0.300   7.555
 1522SOL     OW16624   0.601   0.452   8.124
 1522SOL    HW116625   0.675   0.384   8.123
 1522SOL    HW216626   0.628   0.531   8.069
 1523SOL     OW16627   0.579   1.059   8.829
 1523SOL    HW116628   0.672   1.033   8.855
 1523SOL    HW216629   0.583   1.136   8.765
 1524SOL     OW16630   1.743   1.130   8.733
 1524SOL    HW116631   1.749   1.227   8.709
 1524SOL    HW216632   1.795   1.076   8.667
 1525SOL     OW16633   0.166   1.328   7.475
 1525SOL    HW116634   0.170   1.311   7.376
 1525SOL    HW216635   0.255   1.359   7.507
 1526SOL     OW16636   0.655   1.610   7.587
 1526SOL    HW116637   0.619   1.702   7.574
 1526SOL    HW216638   0.632   1.578   7.679
 1527SOL     OW16639   1.316   1.108   8.838
 1527SOL    HW116640   1.259   1.075   8.913
 1527SOL    HW216641   1.302   1.206   8.826
 1528SOL     OW16642   0.599   1.695   8.773
 1528SOL    HW116643   0.660   1.772   8.756
 1528SOL    HW216644   0.524   1.695   8.707
 1529SOL     OW16645   0.198   0.611   9.098
 1529SOL    HW116646   0.200   0.511   9.096
 1529SOL    HW216647   0.266   0.645   9.163
 1530SOL     OW16648   1.661   1.532   8.434
 1530SOL    HW116649   1.701   1.621   8.457
 1530SOL    HW216650   1.679   1.467   8.507
 1531SOL     OW16651   0.057   0.888   7.968
 1531SOL    HW116652   0.084   0.984   7.970
 1531SOL    HW216653   9.977   0.877   7.909
 1532SOL     OW16654   0.522   0.779   8.852
 1532SOL    HW116655   0.480   0.731   8.775
 1532SOL    HW216656   0.523   0.877   8.833
 1533SOL     OW16657   1.635   1.186   8.243
 1533SOL    HW116658   1.614   1.281   8.220
 1533SOL    HW216659   1.606   1.126   8.168
 1534SOL     OW16660   0.805   0.565   8.383
 1534SOL    HW116661   0.898   0.538   8.409
 1534SOL    HW216662   0.766   0.623   8.455
 1535SOL     OW16663   0.629   1.270   8.658
 1535SOL    HW116664   0.539   1.296   8.625
 1535SOL    HW216665   0.689   1.252   8.580
 1536SOL     OW16666   0.218   0.731   8.505
 1536SOL    HW116667   0.218   0.803   8.574
 1536SOL    HW216668   0.198   0.771   8.415
 1537SOL     OW16669   0.306   1.399   8.863
 1537SOL    HW116670   0.362   1.470   8.907
 1537SOL    HW216671   0.225   1.383   8.918
 1538SOL     OW16672   1.646   1.689   9.164
 1538SOL    HW116673   1.608   1.599   9.141
 1538SOL    HW216674   1.619   1.755   9.094
 1539SOL     OW16675   1.359   1.244   7.853
 1539SOL    HW116676   1.450   1.253   7.893
 1539SOL    HW216677   1.367   1.227   7.755
 1540SOL     OW16678   0.713   0.408   7.833
 1540SOL    HW116679   0.615   0.388   7.828
 1540SOL    HW216680   0.755   0.356   7.907
 1541SOL     OW16681   1.601   0.057   8.149
 1541SOL    HW116682   1.595   0.037   8.051
 1541SOL    HW216683   1.665   0.133   8.163
 1542SOL     OW16684   1.206   0.721   8.799
 1542SOL    HW116685   1.299   0.748   8.774
 1542SOL    HW216686   1.140   0.773   8.746
 1543SOL     OW16687   0.679   0.747   8.208
 1543SOL    HW116688   0.714   0.678   8.272
 1543SOL    HW216689   0.703   0.721   8.115
 1544SOL     OW16690   1.290   1.430   8.427
 1544SOL    HW116691   1.226   1.484   8.481
 1544SOL    HW216692   1.308   1.477   8.341
 1545SOL     OW16693   1.353   0.426   8.102
 1545SOL    HW116694   1.345   0.423   8.002
 1545SOL    HW216695   1.448   0.442   8.127
 1546SOL     OW16696   1.150   1.407   0.012
 1546SOL    HW116697   1.227   1.350   9.984
 1546SOL    HW216698   1.096   1.432   9.932
 1547SOL     OW16699   1.609   1.241   9.791
 1547SOL    HW116700   1.613   1.276   9.885
 1547SOL    HW216701   1.701   1.219   9.759
 1548SOL     OW16702   0.336   0.295   9.247
 1548SOL    HW116703   0.267   0.294   9.174
 1548SOL    HW216704   0.413   0.352   9.218
 1549SOL     OW16705   0.575   1.504   9.608
 1549SOL    HW116706   0.528   1.541   9.688
 1549SOL    HW216707   0.654   1.450   9.637
 1550SOL     OW16708   0.532   0.100   9.287
 1550SOL    HW116709   0.617   0.151   9.275
 1550SOL    HW216710   0.454   0.160   9.266
 1551SOL     OW16711   0.487   1.278   9.982
 1551SOL    HW116712   0.482   1.317   0.074
 1551SOL    HW216713   0.582   1.260   9.958
 1552SOL     OW16714   0.783   0.649   9.734
 1552SOL    HW116715   0.794   0.729   9.676
 1552SOL    HW216716   0.762   0.569   9.678
 1553SOL     OW16717   0.424   1.400   9.393
 1553SOL    HW116718   0.473   1.407   9.307
 1553SOL    HW216719   0.471   1.454   9.463
 1554SOL     OW16720   0.291   0.809   9.724
 1554SOL    HW116721   0.328   0.783   9.814
 1554SOL    HW216722   0.197   0.840   9.734
 1555SOL     OW16723   0.990   1.745   9.849
 1555SOL    HW116724   1.002   1.647   9.838
 1555SOL    HW216725   0.935   1.781   9.773
 1556SOL     OW16726   1.772   1.579   9.615
 1556SOL    HW116727   1.859   1.539   9.587
 1556SOL    HW216728   1.740   1.641   9.544
 1557SOL     OW16729   1.067   0.351   9.579
 1557SOL    HW116730   1.120   0.423   9.623
 1557SOL    HW216731   1.017   0.299   9.648
 1558SOL     OW16732   0.395   0.725   9.266
 1558SOL    HW116733   0.408   0.824   9.279
 1558SOL    HW216734   0.466   0.690   9.205
 1559SOL     OW16735   1.848   1.412   0.074
 1559SOL    HW116736   1.827   1.450   0.164
 1559SOL    HW216737   1.813   1.472   0.003
 1560SOL     OW16738   0.363   1.250   9.731
 1560SOL    HW116739   0.414   1.252   9.816
 1560SOL    HW216740   0.420   1.215   9.657
 1561SOL     OW16741   1.225   0.310   9.349
 1561SOL    HW116742   1.304   0.249   9.363
 1561SOL    HW216743   1.175   0.319   9.436
 1562SOL     OW16744   0.453   0.361   9.718
 1562SOL    HW116745   0.456   0.453   9.759
 1562SOL    HW216746   0.384   0.360   9.645
 1563SOL     OW16747   1.878   1.814   0.280
 1563SOL    HW116748   1.943   1.823   0.356
 1563SOL    HW216749   1.912   1.866   0.201
 1564SOL     OW16750   0.960   0.490   9.872
 1564SOL    HW116751   1.032   0.533   9.926
 1564SOL    HW216752   0.905   0.562   9.827
 1565SOL     OW16753   1.260   0.969   9.394
 1565SOL    HW116754   1.281   0.932   9.485
 1565SOL    HW216755   1.219   0.897   9.337
 1566SOL     OW16756   1.732   0.676   9.580
 1566SOL    HW116757   1.673   0.597   9.563
 1566SOL    HW216758   1.790   0.659   9.660
 1567SOL     OW16759   1.027   1.769   9.364
 1567SOL    HW116760   1.064   1.697   9.306
 1567SOL    HW216761   1.019   1.736   9.458
 1568SOL     OW16762   9.971   0.655   9.820
 1568SOL    HW116763   0.004   0.620   9.908
 1568SOL    HW216764   9.994   0.752   9.813
 1569SOL     OW16765   0.236   1.482   9.633
 1569SOL    HW116766   0.282   1.398   9.663
 1569SOL    HW216767   0.253   1.496   9.535
 1570SOL     OW16768   0.201   1.644   9.848
 1570SOL    HW116769   0.127   1.616   9.910
 1570SOL    HW216770   0.194   1.593   9.762
 1571SOL     OW16771   0.489   0.987   9.281
 1571SOL    HW116772   0.479   1.043   9.199
 1571SOL    HW216773   0.482   1.045   9.362
 1572SOL     OW16774   0.139   0.945   9.465
 1572SOL    HW116775   0.215   0.938   9.530
 1572SOL    HW216776   0.073   0.871   9.481
 1573SOL     OW16777   1.596   0.908   9.639
 1573SOL    HW116778   1.647   0.826   9.613
 1573SOL    HW216779   1.610   0.979   9.570
 1574SOL     OW16780   0.741   0.885   9.228
 1574SOL    HW116781   0.777   0.820   9.294
 1574SOL    HW216782   0.650   0.915   9.257
 1575SOL     OW16783   1.364   0.407   9.660
 1575SOL    HW116784   1.323   0.480   9.605
 1575SOL    HW216785   1.464   0.414   9.654
 1576SOL     OW16786   1.641   0.411   9.672
 1576SOL    HW116787   1.738   0.398   9.653
 1576SOL    HW216788   1.627   0.415   9.771
 1577SOL     OW16789   0.865   0.427   9.414
 1577SOL    HW116790   0.787   0.420   9.477
 1577SOL    HW216791   0.949   0.405   9.462
 1578SOL     OW16792   0.981   1.273   9.356
 1578SOL    HW116793   1.031   1.259   9.441
 1578SOL    HW216794   1.045   1.294   9.282
 1579SOL     OW16795   1.762   1.598   9.889
 1579SOL    HW116796   1.715   1.682   9.915
 1579SOL    HW216797   1.749   1.582   9.791
 1580SOL     OW16798   1.165   0.848   9.851
 1580SOL    HW116799   1.235   0.905   9.893
 1580SOL    HW216800   1.090   0.905   9.819
 1581SOL     OW16801   1.360   0.989   9.966
 1581SOL    HW116802   1.314   0.984   0.055
 1581SOL    HW216803   1.386   1.084   9.947
 1582SOL     OW16804   0.950   0.997   9.767
 1582SOL    HW116805   0.898   0.954   9.693
 1582SOL    HW216806   0.900   0.986   9.853
 1583SOL     OW16807   0.151   0.199   9.725
 1583SOL    HW116808   0.178   0.259   9.649
 1583SOL    HW216809   0.111   0.255   9.798
 1584SOL     OW16810   1.688   1.767   9.425
 1584SOL    HW116811   1.770   1.822   9.409
 1584SOL    HW216812   1.654   1.732   9.338
 1585SOL     OW16813   0.794   0.882   9.572
 1585SOL    HW116814   0.695   0.881   9.578
 1585SOL    HW216815   0.823   0.819   9.499
 1586SOL     OW16816   0.386   1.745   9.419
 1586SOL    HW116817   0.465   1.798   9.387
 1586SOL    HW216818   0.380   1.751   9.519
 1587SOL     OW16819   0.789   0.032   9.566
 1587SOL    HW116820   0.819   9.951   9.515
 1587SOL    HW216821   0.690   0.039   9.561
 1588SOL     OW16822   0.098   1.182   9.738
 1588SOL    HW116823   0.194   1.210   9.742
 1588SOL    HW216824   0.061   1.205   9.648
 1589SOL     OW16825   1.433   0.119   9.343
 1589SOL    HW116826   1.496   0.085   9.273
 1589SOL    HW216827   1.403   0.043   9.401
 1590SOL     OW16828   0.733   0.392   9.992
 1590SOL    HW116829   0.746   0.417   0.088
 1590SOL    HW216830   0.818   0.408   9.942
 1591SOL     OW16831   1.597   0.041   9.694
 1591SOL    HW116832   1.616   9.984   9.614
 1591SOL    HW216833   1.504   0.077   9.687
 1592SOL     OW16834   1.328   0.842   9.628
 1592SOL    HW116835   1.276   0.844   9.713
 1592SOL    HW216836   1.422   0.871   9.647
 1593SOL     OW16837   1.621   0.918   9.910
 1593SOL    HW116838   1.619   0.923   9.811
 1593SOL    HW216839   1.527   0.926   9.946
 1594SOL     OW16840   1.570   0.359   9.409
 1594SOL    HW116841   1.601   0.365   9.504
 1594SOL    HW216842   1.532   0.269   9.392
 1595SOL     OW16843   0.275   0.630   9.498
 1595SOL    HW116844   0.321   0.662   9.415
 1595SOL    HW216845   0.299   0.688   9.575
 1596SOL     OW16846   0.369   1.753   0.042
 1596SOL    HW116847   0.292   1.728   9.982
 1596SOL    HW216848   0.451   1.705   0.012
 1597SOL     OW16849   0.778   1.341   9.700
 1597SOL    HW116850   0.789   1.273   9.627
 1597SOL    HW216851   0.769   1.295   9.788
 1598SOL     OW16852   0.264   0.356   9.516
 1598SOL    HW116853   0.282   0.316   9.426
 1598SOL    HW216854   0.257   0.456   9.507
 1599SOL     OW16855   0.043   0.569   0.076
 1599SOL    HW116856   9.979   0.549   0.150
 1599SOL    HW216857   0.126   0.610   0.115
 1600SOL     OW16858   0.503   1.162   9.503
 1600SOL    HW116859   0.603   1.166   9.501
 1600SOL    HW216860   0.465   1.243   9.460
 1601SOL     OW16861   1.145   0.717   9.287
 1601SOL    HW116862   1.099   0.768   9.215
 1601SOL    HW216863   1.213   0.656   9.246
 1602SOL     OW16864   0.879   0.703   9.385
 1602SOL    HW116865   0.974   0.717   9.360
 1602SOL    HW216866   0.860   0.605   9.390
 1603SOL     OW16867   1.336   0.134   9.676
 1603SOL    HW116868   1.274   0.115   9.752
 1603SOL    HW216869   1.344   0.233   9.664
 1604SOL     OW16870   0.081   9.907   9.233
 1604SOL    HW116871   0.150   9.844   9.199
 1604SOL    HW216872   0.072   9.897   9.332
 1605SOL     OW16873   1.648   1.069   9.423
 1605SOL    HW116874   1.743   1.100   9.431
 1605SOL    HW216875   1.626   1.054   9.327
 1606SOL     OW16876   1.152   0.113   9.870
 1606SOL    HW116877   1.162   0.157   9.960
 1606SOL    HW216878   1.066   0.143   9.828
 1607SOL     OW16879   0.260   9.977   9.605
 1607SOL    HW116880   0.234   0.056   9.660
 1607SOL    HW216881   0.179   9.938   9.562
 1608SOL     OW16882   0.033   1.206   9.470
 1608SOL    HW116883   0.075   1.117   9.456
 1608SOL    HW216884   0.075   1.273   9.410
 1609SOL     OW16885   1.786   0.191   0.048
 1609SOL    HW116886   1.745   0.226   0.132
 1609SOL    HW216887   1.876   0.153   0.068
 1610SOL     OW16888   1.237   0.607   9.528
 1610SOL    HW116889   1.273   0.688   9.574
 1610SOL    HW216890   1.195   0.634   9.441
 1611SOL     OW16891   0.816   1.488   9.259
 1611SOL    HW116892   0.789   1.557   9.326
 1611SOL    HW216893   0.875   1.420   9.303
 1612SOL     OW16894   0.748   1.218   9.941
 1612SOL    HW116895   0.763   1.291   0.008
 1612SOL    HW216896   0.789   1.133   9.973
 1613SOL     OW16897   1.014   1.477   9.780
 1613SOL    HW116898   1.069   1.490   9.698
 1613SOL    HW216899   0.928   1.432   9.755
 1614SOL     OW16900   0.525   0.899   9.598
 1614SOL    HW116901   0.506   0.994   9.571
 1614SOL    HW216902   0.447   0.863   9.648
 1615SOL     OW16903   9.945   0.017   9.821
 1615SOL    HW116904   9.888   0.026   9.739
 1615SOL    HW216905   0.030   0.067   9.808
 1616SOL     OW16906   0.464   1.541   9.863
 1616SOL    HW116907   0.467   1.449   9.904
 1616SOL    HW216908   0.368   1.568   9.852
 1617SOL     OW16909   1.077   1.199   9.612
 1617SOL    HW116910   1.166   1.226   9.650
 1617SOL    HW216911   1.033   1.132   9.672
 1618SOL     OW16912   1.641   0.420   9.945
 1618SOL    HW116913   1.698   0.491   9.987
 1618SOL    HW216914   1.668   0.330   9.978
 1619SOL     OW16915   0.774   1.152   9.495
 1619SOL    HW116916   0.848   1.195   9.442
 1619SOL    HW216917   0.801   1.059   9.520
 1620SOL     OW16918   0.808   0.171   9.323
 1620SOL    HW116919   0.813   0.120   9.409
 1620SOL    HW216920   0.826   0.268   9.340
 1621SOL     OW16921   0.561   0.575   9.877
 1621SOL    HW116922   0.597   0.497   9.928
 1621SOL    HW216923   0.635   0.620   9.827
 1622SOL     OW16924   0.156   1.388   9.298
 1622SOL    HW116925   0.142   1.395   9.199
 1622SOL    HW216926   0.254   1.393   9.318
 1623SOL     OW16927   0.714   1.669   9.439
 1623SOL    HW116928   0.663   1.745   9.399
 1623SOL    HW216929   0.654   1.618   9.500
 1624SOL     OW16930   0.034   0.916   9.757
 1624SOL    HW116931   0.065   1.010   9.767
 1624SOL    HW216932   9.941   0.915   9.721
 1625SOL     OW16933   1.345   1.241   9.701
 1625SOL    HW116934   1.437   1.241   9.742
 1625SOL    HW216935   1.353   1.229   9.602
 1626SOL     OW16936   0.717   0.391   9.641
 1626SOL    HW116937   0.623   0.368   9.666
 1626SOL    HW216938   0.780   0.335   9.696
 1627SOL     OW16939   1.606   0.004   9.967
 1627SOL    HW116940   1.596   0.012   9.868
 1627SOL    HW216941   1.676   0.067   9.998
 1628SOL     OW16942   1.360   0.478   9.932
 1628SOL    HW116943   1.346   0.446   9.838
 1628SOL    HW216944   1.454   0.461   9.960
 1629SOL     OW16945   1.103   3.368   0.776
 1629SOL    HW116946   1.192   3.404   0.804
 1629SOL    HW216947   1.075   3.410   0.690
 1630SOL     OW16948   1.615   3.078   0.536
 1630SOL    HW116949   1.686   3.144   0.513
 1630SOL    HW216950   1.636   2.989   0.496
 1631SOL     OW16951   0.447   2.016   0.069
 1631SOL    HW116952   0.406   1.925   0.063
 1631SOL    HW216953   0.473   2.046   9.977
 1632SOL     OW16954   1.366   3.459   0.867
 1632SOL    HW116955   1.345   3.557   0.859
 1632SOL    HW216956   1.452   3.447   0.917
 1633SOL     OW16957   1.275   1.932   1.386
 1633SOL    HW116958   1.185   1.899   1.413
 1633SOL    HW216959   1.305   1.884   1.303
 1634SOL     OW16960   0.571   3.352   0.434
 1634SOL    HW116961   0.514   3.317   0.508
 1634SOL    HW216962   0.644   3.409   0.471
 1635SOL     OW16963   0.645   1.908   0.231
 1635SOL    HW116964   0.723   1.946   0.183
 1635SOL    HW216965   0.561   1.950   0.197
 1636SOL     OW16966   0.984   3.283   1.352
 1636SOL    HW116967   0.901   3.323   1.391
 1636SOL    HW216968   0.959   3.220   1.278
 1637SOL     OW16969   0.724   2.458   0.555
 1637SOL    HW116970   0.721   2.526   0.482
 1637SOL    HW216971   0.700   2.368   0.519
 1638SOL     OW16972   0.518   3.184   0.217
 1638SOL    HW116973   0.600   3.206   0.164
 1638SOL    HW216974   0.522   3.232   0.305
 1639SOL     OW16975   0.596   2.163   1.014
 1639SOL    HW116976   0.659   2.239   1.002
 1639SOL    HW216977   0.637   2.079   0.978
 1640SOL     OW16978   0.756   3.511   0.560
 1640SOL    HW116979   0.853   3.489   0.548
 1640SOL    HW216980   0.738   3.602   0.522
 1641SOL     OW16981   1.646   3.408   0.156
 1641SOL    HW116982   1.689   3.491   0.121
 1641SOL    HW216983   1.547   3.413   0.143
 1642SOL     OW16984   1.086   2.184   0.328
 1642SOL    HW116985   1.154   2.257   0.333
 1642SOL    HW216986   1.086   2.134   0.415
 1643SOL     OW16987   0.236   2.895   1.630
 1643SOL    HW116988   0.314   2.949   1.663
 1643SOL    HW216989   0.172   2.880   1.705
 1644SOL     OW16990   0.420   2.453   0.046
 1644SOL    HW116991   0.449   2.549   0.038
 1644SOL    HW216992   0.462   2.399   9.973
 1645SOL     OW16993   0.646   3.404   0.784
 1645SOL    HW116994   0.693   3.443   0.704
 1645SOL    HW216995   0.570   3.348   0.753
 1646SOL     OW16996   1.196   2.094   0.081
 1646SOL    HW116997   1.289   2.077   0.115
 1646SOL    HW216998   1.137   2.120   0.157
 1647SOL     OW16999   0.383   2.405   1.247
 1647SOL    HW117000   0.367   2.309   1.224
 1647SOL    HW217001   0.297   2.455   1.244
 1648SOL     OW17002   0.395   2.131   0.455
 1648SOL    HW117003   0.338   2.168   0.529
 1648SOL    HW217004   0.372   2.176   0.369
 1649SOL     OW17005   1.541   3.628   1.347
 1649SOL    HW117006   1.469   3.645   1.280
 1649SOL    HW217007   1.627   3.608   1.299
 1650SOL     OW17008   1.749   2.360   1.056
 1650SOL    HW117009   1.833   2.414   1.065
 1650SOL    HW217010   1.738   2.302   1.136
 1651SOL     OW17011   1.781   3.585   1.209
 1651SOL    HW117012   1.824   3.622   1.291
 1651SOL    HW217013   1.851   3.554   1.145
 1652SOL     OW17014   0.953   2.311   0.641
 1652SOL    HW117015   1.012   2.357   0.707
 1652SOL    HW217016   0.886   2.377   0.604
 1653SOL     OW17017   1.106   2.826   0.198
 1653SOL    HW117018   1.141   2.753   0.257
 1653SOL    HW217019   1.011   2.845   0.220
 1654SOL     OW17020   1.002   2.133   1.913
 1654SOL    HW117021   1.087   2.164   1.956
 1654SOL    HW217022   0.927   2.194   1.940
 1655SOL     OW17023   1.721   2.469   0.334
 1655SOL    HW117024   1.692   2.381   0.298
 1655SOL    HW217025   1.782   2.456   0.412
 1656SOL     OW17026   0.972   3.627   0.114
 1656SOL    HW117027   0.970   3.603   0.017
 1656SOL    HW217028   1.027   3.560   0.164
 1657SOL     OW17029   0.781   1.868   1.712
 1657SOL    HW117030   0.812   1.776   1.687
 1657SOL    HW217031   0.793   1.882   1.810
 1658SOL     OW17032   1.514   2.475   0.958
 1658SOL    HW117033   1.533   2.573   0.949
 1658SOL    HW217034   1.597   2.429   0.989
 1659SOL     OW17035   1.365   1.818   0.904
 1659SOL    HW117036   1.325   1.909   0.907
 1659SOL    HW217037   1.449   1.820   0.851
 1660SOL     OW17038   1.769   2.076   1.834
 1660SOL    HW117039   1.710   2.123   1.899
 1660SOL    HW217040   1.821   2.004   1.881
 1661SOL     OW17041   9.966   2.509   0.614
 1661SOL    HW117042   0.030   2.479   0.685
 1661SOL    HW217043   0.003   2.590   0.569
 1662SOL     OW17044   0.388   2.061   0.847
 1662SOL    HW117045   0.459   2.109   0.900
 1662SOL    HW217046   0.432   1.993   0.789
 1663SOL     OW17047   0.367   2.141   1.166
 1663SOL    HW117048   0.307   2.085   1.109
 1663SOL    HW217049   0.457   2.149   1.123
 1664SOL     OW17050   1.006   2.667   0.858
 1664SOL    HW117051   0.910   2.648   0.837
 1664SOL    HW217052   1.058   2.582   0.851
 1665SOL     OW17053   0.253   3.330   0.310
 1665SOL    HW117054   0.325   3.283   0.259
 1665SOL    HW217055   0.247   3.425   0.280
 1666SOL     OW17056   1.443   3.217   1.246
 1666SOL    HW117057   1.391   3.213   1.161
 1666SOL    HW217058   1.380   3.211   1.324
 1667SOL     OW17059   0.181   3.322   0.573
 1667SOL    HW117060   0.143   3.410   0.601
 1667SOL    HW217061   0.205   3.326   0.476
 1668SOL     OW17062   1.709   3.267   1.310
 1668SOL    HW117063   1.736   3.271   1.406
 1668SOL    HW217064   1.614   3.237   1.303
 1669SOL     OW17065   0.490   2.730  10.000
 1669SOL    HW117066   0.408   2.757   9.949
 1669SOL    HW217067   0.513   2.800   0.067
 1670SOL     OW17068   0.025   2.699   0.416
 1670SOL    HW117069   0.081   2.654   0.347
 1670SOL    HW217070   9.929   2.700   0.386
 1671SOL     OW17071   1.522   2.655   0.382
 1671SOL    HW117072   1.583   2.577   0.366
 1671SOL    HW217073   1.556   2.735   0.332
 1672SOL     OW17074   0.942   3.596   1.023
 1672SOL    HW117075   1.001   3.528   1.066
 1672SOL    HW217076   0.846   3.570   1.035
 1673SOL     OW17077   0.759   2.714   9.957
 1673SOL    HW117078   0.803   2.650   0.019
 1673SOL    HW217079   0.660   2.712   9.972
 1674SOL     OW17080   1.396   2.291   0.527
 1674SOL    HW117081   1.362   2.337   0.445
 1674SOL    HW217082   1.496   2.293   0.528
 1675SOL     OW17083   0.426   2.520   1.494
 1675SOL    HW117084   0.413   2.466   1.412
 1675SOL    HW217085   0.362   2.490   1.565
 1676SOL     OW17086   0.285   2.068   1.427
 1676SOL    HW117087   0.319   2.100   1.339
 1676SOL    HW217088   0.253   1.973   1.418
 1677SOL     OW17089   0.913   2.773   1.102
 1677SOL    HW117090   0.969   2.734   1.029
 1677SOL    HW217091   0.823   2.796   1.065
 1678SOL     OW17092   1.664   2.253   0.568
 1678SOL    HW117093   1.736   2.322   0.560
 1678SOL    HW217094   1.666   2.215   0.661
 1679SOL     OW17095   0.872   3.305   0.926
 1679SOL    HW117096   0.954   3.343   0.883
 1679SOL    HW217097   0.791   3.333   0.875
 1680SOL     OW17098   0.841   2.274   0.257
 1680SOL    HW117099   0.770   2.252   0.324
 1680SOL    HW217100   0.931   2.250   0.293
 1681SOL     OW17101   0.993   3.174   0.224
 1681SOL    HW117102   1.023   3.174   0.320
 1681SOL    HW217103   1.057   3.228   0.169
 1682SOL     OW17104   1.165   2.723   0.622
 1682SOL    HW117105   1.243   2.752   0.678
 1682SOL    HW217106   1.084   2.714   0.680
 1683SOL     OW17107   0.885   3.494   1.616
 1683SOL    HW117108   0.819   3.442   1.563
 1683SOL    HW217109   0.948   3.432   1.663
 1684SOL     OW17110   1.359   2.803   0.798
 1684SOL    HW117111   1.419   2.767   0.869
 1684SOL    HW217112   1.305   2.879   0.835
 1685SOL     OW17113   0.278   2.901   0.942
 1685SOL    HW117114   0.221   2.969   0.896
 1685SOL    HW217115   0.280   2.921   1.040
 1686SOL     OW17116   1.248   3.235   1.439
 1686SOL    HW117117   1.288   3.321   1.472
 1686SOL    HW217118   1.151   3.248   1.420
 1687SOL     OW17119   0.058   2.112   0.481
 1687SOL    HW117120   0.035   2.191   0.424
 1687SOL    HW217121   0.119   2.141   0.555
 1688SOL     OW17122   0.834   2.654   1.345
 1688SOL    HW117123   0.857   2.698   1.258
 1688SOL    HW217124   0.911   2.663   1.408
 1689SOL     OW17125   0.164   3.679   1.385
 1689SOL    HW117126   0.105   3.671   1.304
 1689SOL    HW217127   0.117   3.640   1.464
 1690SOL     OW17128   0.695   2.603   0.330
 1690SOL    HW117129   0.601   2.623   0.302
 1690SOL    HW217130   0.750   2.583   0.248
 1691SOL     OW17131   0.365   2.437   0.933
 1691SOL    HW117132   0.427   2.403   0.861
 1691SOL    HW217133   0.407   2.423   1.022
 1692SOL     OW17134   0.281   3.596   0.240
 1692SOL    HW117135   0.351   3.610   0.171
 1692SOL    HW217136   0.316   3.625   0.329
 1693SOL     OW17137   1.350   3.614   1.138
 1693SOL    HW117138   1.337   3.666   1.054
 1693SOL    HW217139   1.418   3.542   1.123
 1694SOL     OW17140   0.074   3.085   0.886
 1694SOL    HW117141   0.010   3.074   0.810
 1694SOL    HW217142   0.033   3.048   0.969
 1695SOL     OW17143   0.733   1.875   0.491
 1695SOL    HW117144   0.697   1.889   0.399
 1695SOL    HW217145   0.809   1.938   0.507
 1696SOL     OW17146   0.145   3.043   0.554
 1696SOL    HW117147   0.155   3.138   0.584
 1696SOL    HW217148   0.125   3.041   0.456
 1697SOL     OW17149   1.569   2.142   1.648
 1697SOL    HW117150   1.543   2.229   1.691
 1697SOL    HW217151   1.647   2.104   1.697
 1698SOL     OW17152   1.269   2.077   0.930
 1698SOL    HW117153   1.299   2.151   0.869
 1698SOL    HW217154   1.286   2.103   1.025
 1699SOL     OW17155   1.427   2.042   0.234
 1699SOL    HW117156   1.482   1.960   0.218
 1699SOL    HW217157   1.376   2.031   0.319
 1700SOL     OW17158   1.572   1.866   1.608
 1700SOL    HW117159   1.567   1.837   1.512
 1700SOL    HW217160   1.552   1.964   1.613
 1701SOL     OW17161   0.741   2.144   0.718
 1701SOL    HW117162   0.743   2.066   0.781
 1701SOL    HW217163   0.830   2.189   0.718
 1702SOL     OW17164   1.287   2.460   1.116
 1702SOL    HW117165   1.363   2.461   1.051
 1702SOL    HW217166   1.277   2.551   1.157
 1703SOL     OW17167   1.570   1.897   0.485
 1703SOL    HW117168   1.577   1.863   0.391
 1703SOL    HW217169   1.483   1.944   0.496
 1704SOL     OW17170   0.504   3.290   1.788
 1704SOL    HW117171   0.478   3.345   1.709
 1704SOL    HW217172   0.541   3.350   1.859
 1705SOL     OW17173   0.466   3.028   1.709
 1705SOL    HW117174   0.481   3.029   1.610
 1705SOL    HW217175   0.481   3.119   1.747
 1706SOL     OW17176   0.201   3.312   0.991
 1706SOL    HW117177   0.178   3.230   0.939
 1706SOL    HW217178   0.117   3.357   1.021
 1707SOL     OW17179   1.109   2.415   0.836
 1707SOL    HW117180   1.201   2.381   0.817
 1707SOL    HW217181   1.076   2.376   0.922
 1708SOL     OW17182   1.318   2.191   1.173
 1708SOL    HW117183   1.315   2.291   1.163
 1708SOL    HW217184   1.379   2.166   1.248
 1709SOL     OW17185   1.555   2.356   1.822
 1709SOL    HW117186   1.587   2.448   1.840
 1709SOL    HW217187   1.565   2.300   1.904
 1710SOL     OW17188   1.245   2.656   0.370
 1710SOL    HW117189   1.206   2.678   0.460
 1710SOL    HW217190   1.344   2.661   0.374
 1711SOL     OW17191   1.573   2.759   0.629
 1711SOL    HW117192   1.551   2.717   0.541
 1711SOL    HW217193   1.489   2.772   0.682
 1712SOL     OW17194   1.645   2.201   0.292
 1712SOL    HW117195   1.656   2.198   0.392
 1712SOL    HW217196   1.559   2.157   0.267
 1713SOL     OW17197   0.731   3.375   1.429
 1713SOL    HW117198   0.672   3.455   1.415
 1713SOL    HW217199   0.693   3.297   1.379
 1714SOL     OW17200   0.217   2.153   1.679
 1714SOL    HW117201   0.253   2.130   1.589
 1714SOL    HW217202   0.123   2.119   1.688
 1715SOL     OW17203   0.070   3.628   1.656
 1715SOL    HW117204   0.160   3.641   1.696
 1715SOL    HW217205   0.026   3.548   1.697
 1716SOL     OW17206   0.232   2.196   0.671
 1716SOL    HW117207   0.184   2.271   0.716
 1716SOL    HW217208   0.286   2.146   0.739
 1717SOL     OW17209   1.386   3.464   1.511
 1717SOL    HW117210   1.315   3.526   1.543
 1717SOL    HW217211   1.448   3.513   1.449
 1718SOL     OW17212   0.214   2.556   0.252
 1718SOL    HW117213   0.244   2.493   0.181
 1718SOL    HW217214   0.290   2.615   0.279
 1719SOL     OW17215   1.737   2.176   1.266
 1719SOL    HW117216   1.647   2.149   1.301
 1719SOL    HW217217   1.762   2.116   1.190
 1720SOL     OW17218   0.445   3.651   0.751
 1720SOL    HW117219   0.407   3.656   0.659
 1720SOL    HW217220   0.536   3.610   0.747
 1721SOL     OW17221   0.375   3.212   1.184
 1721SOL    HW117222   0.350   3.251   1.273
 1721SOL    HW217223   0.317   3.252   1.113
 1722SOL     OW17224   0.365   2.239   0.210
 1722SOL    HW117225   0.389   2.157   0.158
 1722SOL    HW217226   0.386   2.320   0.155
 1723SOL     OW17227   0.114   2.395   0.818
 1723SOL    HW117228   0.043   2.380   0.888
 1723SOL    HW217229   0.201   2.415   0.863
 1724SOL     OW17230   0.582   2.916   0.185
 1724SOL    HW117231   0.679   2.910   0.211
 1724SOL    HW217232   0.547   3.007   0.206
 1725SOL     OW17233   1.121   2.505   9.983
 1725SOL    HW117234   1.135   2.601   9.957
 1725SOL    HW217235   1.206   2.455   9.972
 1726SOL     OW17236   0.869   2.515   0.117
 1726SOL    HW117237   0.962   2.514   0.080
 1726SOL    HW217238   0.850   2.427   0.162
 1727SOL     OW17239   1.327   2.029   0.494
 1727SOL    HW117240   1.235   2.012   0.528
 1727SOL    HW217241   1.354   2.124   0.515
 1728SOL     OW17242   0.261   2.955   1.210
 1728SOL    HW117243   0.293   2.893   1.282
 1728SOL    HW217244   0.311   3.041   1.215
 1729SOL     OW17245   1.634   2.854   0.242
 1729SOL    HW117246   1.727   2.886   0.222
 1729SOL    HW217247   1.585   2.838   0.156
 1730SOL     OW17248   0.649   2.491   1.197
 1730SOL    HW117249   0.696   2.549   1.263
 1730SOL    HW217250   0.556   2.471   1.230
 1731SOL     OW17251   1.062   2.068   0.586
 1731SOL    HW117252   1.025   2.159   0.601
 1731SOL    HW217253   1.051   2.013   0.669
 1732SOL     OW17254   1.190   3.633   1.578
 1732SOL    HW117255   1.118   3.639   1.509
 1732SOL    HW217256   1.190   3.716   1.634
 1733SOL     OW17257   0.675   1.935   0.885
 1733SOL    HW117258   0.621   1.906   0.806
 1733SOL    HW217259   0.674   1.864   0.955
 1734SOL     OW17260   0.385   3.677   1.224
 1734SOL    HW117261   0.362   3.637   1.136
 1734SOL    HW217262   0.306   3.671   1.285
 1735SOL     OW17263   1.039   3.099   0.762
 1735SOL    HW117264   1.059   3.196   0.772
 1735SOL    HW217265   1.104   3.045   0.815
 1736SOL     OW17266   0.689   2.814   0.950
 1736SOL    HW117267   0.700   2.729   0.899
 1736SOL    HW217268   0.591   2.830   0.966
 1737SOL     OW17269   9.993   2.970   1.127
 1737SOL    HW117270   0.084   2.969   1.167
 1737SOL    HW217271   9.948   2.881   1.142
 1738SOL     OW17272   0.310   1.869   0.485
 1738SOL    HW117273   0.339   1.962   0.464
 1738SOL    HW217274   0.211   1.868   0.503
 1739SOL     OW17275   0.699   2.442   1.815
 1739SOL    HW117276   0.704   2.485   1.725
 1739SOL    HW217277   0.779   2.468   1.869
 1740SOL     OW17278   0.886   3.135   1.135
 1740SOL    HW117279   0.908   3.043   1.102
 1740SOL    HW217280   0.884   3.198   1.058
 1741SOL     OW17281   1.273   2.390   0.298
 1741SOL    HW117282   1.250   2.485   0.321
 1741SOL    HW217283   1.285   2.382   0.199
 1742SOL     OW17284   1.538   3.327   1.690
 1742SOL    HW117285   1.491   3.244   1.719
 1742SOL    HW217286   1.481   3.376   1.624
 1743SOL     OW17287   0.312   2.759   1.409
 1743SOL    HW117288   0.371   2.683   1.437
 1743SOL    HW217289   0.291   2.815   1.488
 1744SOL     OW17290   0.758   3.230   0.093
 1744SOL    HW117291   0.730   3.325   0.102
 1744SOL    HW217292   0.844   3.216   0.142
 1745SOL     OW17293   0.655   3.558   1.011
 1745SOL    HW117294   0.650   3.494   0.934
 1745SOL    HW217295   0.572   3.551   1.065
 1746SOL     OW17296   0.777   3.023   0.780
 1746SOL    HW117297   0.870   3.058   0.783
 1746SOL    HW217298   0.765   2.953   0.851
 1747SOL     OW17299   1.015   3.426   0.518
 1747SOL    HW117300   1.050   3.469   0.435
 1747SOL    HW217301   1.024   3.327   0.510
 1748SOL     OW17302   0.201   2.648   0.997
 1748SOL    HW117303   0.264   2.580   0.958
 1748SOL    HW217304   0.225   2.739   0.964
 1749SOL     OW17305   0.050   2.844   1.831
 1749SOL    HW117306   0.033   2.752   1.797
 1749SOL    HW217307   0.051   2.843   1.931
 1750SOL     OW17308   0.980   3.645   1.401
 1750SOL    HW117309   0.942   3.586   1.471
 1750SOL    HW217310   0.908   3.706   1.366
 1751SOL     OW17311   1.219   2.992   0.941
 1751SOL    HW117312   1.247   3.084   0.969
 1751SOL    HW217313   1.183   2.942   1.021
 1752SOL     OW17314   0.604   2.186   1.806
 1752SOL    HW117315   0.635   2.149   1.719
 1752SOL    HW217316   0.639   2.279   1.818
 1753SOL     OW17317   0.428   2.724   0.308
 1753SOL    HW117318   0.482   2.793   0.261
 1753SOL    HW217319   0.383   2.766   0.387
 1754SOL     OW17320   1.566   2.751   0.969
 1754SOL    HW117321   1.588   2.834   0.918
 1754SOL    HW217322   1.636   2.735   1.039
 1755SOL     OW17323   1.484   2.112   1.385
 1755SOL    HW117324   1.515   2.135   1.477
 1755SOL    HW217325   1.410   2.045   1.391
 1756SOL     OW17326   0.034   1.849   0.531
 1756SOL    HW117327   9.948   1.813   0.495
 1756SOL    HW217328   0.037   1.948   0.517
 1757SOL     OW17329   1.222   2.001   1.780
 1757SOL    HW117330   1.261   2.072   1.721
 1757SOL    HW217331   1.134   2.033   1.816
 1758SOL     OW17332   0.433   3.483   1.598
 1758SOL    HW117333   0.389   3.547   1.661
 1758SOL    HW217334   0.490   3.533   1.533
 1759SOL     OW17335   1.788   3.296   1.580
 1759SOL    HW117336   1.841   3.380   1.591
 1759SOL    HW217337   1.698   3.307   1.622
 1760SOL     OW17338   1.047   2.318   1.085
 1760SOL    HW117339   1.126   2.376   1.108
 1760SOL    HW217340   1.065   2.224   1.114
 1761SOL     OW17341   0.441   3.260   0.660
 1761SOL    HW117342   0.453   3.163   0.680
 1761SOL    HW217343   0.344   3.279   0.646
 1762SOL     OW17344   1.121   3.429   1.157
 1762SOL    HW117345   1.077   3.396   1.241
 1762SOL    HW217346   1.191   3.496   1.181
 1763SOL     OW17347   0.312   3.652   1.789
 1763SOL    HW117348   0.346   3.744   1.806
 1763SOL    HW217349   0.304   3.602   1.876
 1764SOL     OW17350   0.074   3.250   1.554
 1764SOL    HW117351   0.031   3.174   1.603
 1764SOL    HW217352   0.007   3.293   1.493
 1765SOL     OW17353   0.320   3.565   0.985
 1765SOL    HW117354   0.288   3.471   0.975
 1765SOL    HW217355   0.358   3.597   0.897
 1766SOL     OW17356   1.033   1.963   0.839
 1766SOL    HW117357   1.116   2.002   0.878
 1766SOL    HW217358   0.991   1.900   0.905
 1767SOL     OW17359   1.074   3.160   0.489
 1767SOL    HW117360   1.174   3.153   0.495
 1767SOL    HW217361   1.034   3.117   0.570
 1768SOL     OW17362   0.847   2.940   0.272
 1768SOL    HW117363   0.897   3.025   0.253
 1768SOL    HW217364   0.821   2.937   0.368
 1769SOL     OW17365   0.848   2.035   0.104
 1769SOL    HW117366   0.919   1.966   0.117
 1769SOL    HW217367   0.868   2.115   0.160
 1770SOL     OW17368   0.545   2.346   0.750
 1770SOL    HW117369   0.601   2.263   0.753
 1770SOL    HW217370   0.577   2.405   0.676
 1771SOL     OW17371   0.475   3.060   1.445
 1771SOL    HW117372   0.550   3.083   1.383
 1771SOL    HW217373   0.409   3.135   1.447
 1772SOL     OW17374   0.640   3.466   0.179
 1772SOL    HW117375   0.641   3.566   0.171
 1772SOL    HW217376   0.609   3.440   0.270
 1773SOL     OW17377   0.582   3.606   1.397
 1773SOL    HW117378   0.650   3.679   1.392
 1773SOL    HW217379   0.508   3.625   1.333
 1774SOL     OW17380   0.260   2.430   1.697
 1774SOL    HW117381   0.247   2.330   1.699
 1774SOL    HW217382   0.323   2.457   1.770
 1775SOL     OW17383   1.557   3.440   1.089
 1775SOL    HW117384   1.642   3.487   1.114
 1775SOL    HW217385   1.549   3.355   1.141
 1776SOL     OW17386   9.881   2.905   0.601
 1776SOL    HW117387   9.981   2.908   0.590
 1776SOL    HW217388   9.843   2.837   0.538
 1777SOL     OW17389   0.689   2.557   1.567
 1777SOL    HW117390   0.591   2.549   1.547
 1777SOL    HW217391   0.735   2.599   1.490
 1778SOL     OW17392   1.650   2.958   0.805
 1778SOL    HW117393   1.627   3.047   0.764
 1778SOL    HW217394   1.640   2.886   0.737
 1779SOL     OW17395   0.784   2.371   1.000
 1779SOL    HW117396   0.877   2.351   1.031
 1779SOL    HW217397   0.735   2.418   1.073
 1780SOL     OW17398   0.644   3.176   1.264
 1780SOL    HW117399   0.563   3.188   1.206
 1780SOL    HW217400   0.723   3.158   1.206
 1781SOL     OW17401   0.171   2.583   1.254
 1781SOL    HW117402   0.220   2.652   1.306
 1781SOL    HW217403   0.169   2.608   1.157
 1782SOL     OW17404   0.318   3.285   1.444
 1782SOL    HW117405   0.362   3.359   1.496
 1782SOL    HW217406   0.226   3.268   1.481
 1783SOL     OW17407   1.659   3.556   1.794
 1783SOL    HW117408   1.615   3.468   1.776
 1783SOL    HW217409   1.633   3.622   1.723
 1784SOL     OW17410   1.343   3.123   0.498
 1784SOL    HW117411   1.437   3.115   0.532
 1784SOL    HW217412   1.330   3.062   0.421
 1785SOL     OW17413   0.664   2.205   0.465
 1785SOL    HW117414   0.569   2.177   0.446
 1785SOL    HW217415   0.692   2.170   0.554
 1786SOL     OW17416   1.584   1.820   0.751
 1786SOL    HW117417   1.568   1.843   0.654
 1786SOL    HW217418   1.682   1.821   0.769
 1787SOL     OW17419   0.750   2.578   0.812
 1787SOL    HW117420   0.750   2.500   0.874
 1787SOL    HW217421   0.737   2.546   0.718
 1788SOL     OW17422   1.275   3.246   1.024
 1788SOL    HW117423   1.205   3.297   1.073
 1788SOL    HW217424   1.315   3.304   0.953
 1789SOL     OW17425   1.354   2.307   0.798
 1789SOL    HW117426   1.372   2.305   0.699
 1789SOL    HW217427   1.423   2.363   0.843
 1790SOL     OW17428   1.635   3.048   2.404
 1790SOL    HW117429   1.632   3.136   2.356
 1790SOL    HW217430   1.729   3.013   2.406
 1791SOL     OW17431   1.644   2.493   3.234
 1791SOL    HW117432   1.575   2.444   3.289
 1791SOL    HW217433   1.694   2.556   3.293
 1792SOL     OW17434   0.381   2.056   1.879
 1792SOL    HW117435   0.312   2.086   1.813
 1792SOL    HW217436   0.467   2.105   1.861
 1793SOL     OW17437   1.207   1.923   3.171
 1793SOL    HW117438   1.132   1.871   3.212
 1793SOL    HW217439   1.254   1.866   3.104
 1794SOL     OW17440   0.980   2.703   3.604
 1794SOL    HW117441   0.967   2.648   3.521
 1794SOL    HW217442   0.891   2.736   3.636
 1795SOL     OW17443   0.625   3.404   2.225
 1795SOL    HW117444   0.643   3.450   2.312
 1795SOL    HW217445   0.572   3.321   2.242
 1796SOL     OW17446   0.564   1.870   2.009
 1796SOL    HW117447   0.659   1.900   1.998
 1796SOL    HW217448   0.502   1.940   1.974
 1797SOL     OW17449   1.588   2.905   3.405
 1797SOL    HW117450   1.492   2.928   3.388
 1797SOL    HW217451   1.643   2.937   3.328
 1798SOL     OW17452   1.469   2.886   3.099
 1798SOL    HW117453   1.406   2.920   3.169
 1798SOL    HW217454   1.560   2.924   3.113
 1799SOL     OW17455   0.975   3.177   3.343
 1799SOL    HW117456   0.890   3.229   3.334
 1799SOL    HW217457   0.981   3.110   3.269
 1800SOL     OW17458   0.388   3.067   2.527
 1800SOL    HW117459   0.368   3.000   2.598
 1800SOL    HW217460   0.475   3.045   2.483
 1801SOL     OW17461   0.767   2.447   2.416
 1801SOL    HW117462   0.780   2.523   2.352
 1801SOL    HW217463   0.727   2.369   2.367
 1802SOL     OW17464   1.281   2.376   3.601
 1802SOL    HW117465   1.373   2.351   3.631
 1802SOL    HW217466   1.224   2.294   3.599
 1803SOL     OW17467   0.280   2.639   2.309
 1803SOL    HW117468   0.312   2.630   2.403
 1803SOL    HW217469   0.188   2.680   2.309
 1804SOL     OW17470   0.698   3.571   2.445
 1804SOL    HW117471   0.793   3.564   2.475
 1804SOL    HW217472   0.692   3.640   2.372
 1805SOL     OW17473   1.876   3.502   2.210
 1805SOL    HW117474   1.951   3.436   2.222
 1805SOL    HW217475   1.831   3.485   2.122
 1806SOL     OW17476   1.682   2.146   2.960
 1806SOL    HW117477   1.721   2.235   2.980
 1806SOL    HW217478   1.582   2.152   2.961
 1807SOL     OW17479   1.059   2.184   2.254
 1807SOL    HW117480   1.066   2.260   2.319
 1807SOL    HW217481   1.058   2.097   2.303
 1808SOL     OW17482   0.243   2.823   3.416
 1808SOL    HW117483   0.306   2.890   3.454
 1808SOL    HW217484   0.193   2.779   3.490
 1809SOL     OW17485   0.445   2.529   1.881
 1809SOL    HW117486   0.456   2.627   1.868
 1809SOL    HW217487   0.532   2.483   1.865
 1810SOL     OW17488   0.613   3.416   2.668
 1810SOL    HW117489   0.637   3.472   2.589
 1810SOL    HW217490   0.521   3.378   2.656
 1811SOL     OW17491   1.001   2.502   3.407
 1811SOL    HW117492   1.042   2.425   3.457
 1811SOL    HW217493   1.069   2.542   3.346
 1812SOL     OW17494   1.234   2.198   2.044
 1812SOL    HW117495   1.303   2.126   2.037
 1812SOL    HW217496   1.183   2.188   2.130
 1813SOL     OW17497   1.429   2.619   3.123
 1813SOL    HW117498   1.443   2.718   3.115
 1813SOL    HW217499   1.512   2.577   3.160
 1814SOL     OW17500   0.386   2.081   2.363
 1814SOL    HW117501   0.414   2.043   2.451
 1814SOL    HW217502   0.298   2.127   2.373
 1815SOL     OW17503   1.780   2.392   3.022
 1815SOL    HW117504   1.873   2.427   3.024
 1815SOL    HW217505   1.730   2.426   3.101
 1816SOL     OW17506   1.912   3.486   2.983
 1816SOL    HW117507   1.912   3.524   3.076
 1816SOL    HW217508   1.991   3.521   2.933
 1817SOL     OW17509   0.981   2.301   2.513
 1817SOL    HW117510   1.036   2.347   2.582
 1817SOL    HW217511   0.912   2.364   2.477
 1818SOL     OW17512   1.104   2.166   3.603
 1818SOL    HW117513   1.095   2.145   3.700
 1818SOL    HW217514   1.027   2.128   3.553
 1819SOL     OW17515   1.757   2.512   2.225
 1819SOL    HW117516   1.705   2.427   2.237
 1819SOL    HW217517   1.825   2.521   2.297
 1820SOL     OW17518   0.802   1.887   3.555
 1820SOL    HW117519   0.819   1.792   3.531
 1820SOL    HW217520   0.808   1.899   3.654
 1821SOL     OW17521   1.707   2.495   2.779
 1821SOL    HW117522   1.686   2.592   2.793
 1821SOL    HW217523   1.726   2.452   2.867
 1822SOL     OW17524   1.109   3.142   3.598
 1822SOL    HW117525   1.148   3.050   3.587
 1822SOL    HW217526   1.044   3.160   3.525
 1823SOL     OW17527   0.776   2.979   3.589
 1823SOL    HW117528   0.714   3.057   3.599
 1823SOL    HW217529   0.758   2.913   3.663
 1824SOL     OW17530   1.392   1.807   2.726
 1824SOL    HW117531   1.342   1.893   2.734
 1824SOL    HW217532   1.478   1.823   2.678
 1825SOL     OW17533   1.754   2.037   3.607
 1825SOL    HW117534   1.713   2.059   3.695
 1825SOL    HW217535   1.724   1.945   3.579
 1826SOL     OW17536   9.986   2.412   2.401
 1826SOL    HW117537   0.023   2.467   2.476
 1826SOL    HW217538   9.978   2.469   2.319
 1827SOL     OW17539   0.461   1.971   2.601
 1827SOL    HW117540   0.549   1.970   2.648
 1827SOL    HW217541   0.413   1.886   2.618
 1828SOL     OW17542   0.385   2.085   3.101
 1828SOL    HW117543   0.398   1.987   3.090
 1828SOL    HW217544   0.433   2.134   3.028
 1829SOL     OW17545   1.052   2.651   2.766
 1829SOL    HW117546   0.958   2.650   2.732
 1829SOL    HW217547   1.095   2.563   2.746
 1830SOL     OW17548   0.290   3.380   2.285
 1830SOL    HW117549   0.349   3.300   2.277
 1830SOL    HW217550   0.288   3.428   2.197
 1831SOL     OW17551   1.447   3.208   3.141
 1831SOL    HW117552   1.424   3.211   3.044
 1831SOL    HW217553   1.365   3.222   3.195
 1832SOL     OW17554   0.148   3.477   2.486
 1832SOL    HW117555   0.102   3.559   2.452
 1832SOL    HW217556   0.196   3.431   2.411
 1833SOL     OW17557   1.709   3.242   3.183
 1833SOL    HW117558   1.736   3.268   3.276
 1833SOL    HW217559   1.609   3.234   3.179
 1834SOL     OW17560   0.522   2.793   1.852
 1834SOL    HW117561   0.505   2.860   1.778
 1834SOL    HW217562   0.520   2.840   1.940
 1835SOL     OW17563   0.978   2.987   3.144
 1835SOL    HW117564   1.023   2.904   3.112
 1835SOL    HW217565   0.917   3.022   3.073
 1836SOL     OW17566   0.048   2.790   2.102
 1836SOL    HW117567   0.038   2.796   2.201
 1836SOL    HW217568   0.036   2.695   2.072
 1837SOL     OW17569   1.584   2.719   2.275
 1837SOL    HW117570   1.649   2.647   2.252
 1837SOL    HW217571   1.615   2.805   2.236
 1838SOL     OW17572   0.867   3.628   2.815
 1838SOL    HW117573   0.898   3.542   2.776
 1838SOL    HW217574   0.795   3.610   2.883
 1839SOL     OW17575   0.783   2.757   1.961
 1839SOL    HW117576   0.829   2.669   1.954
 1839SOL    HW217577   0.703   2.757   1.901
 1840SOL     OW17578   1.368   2.322   2.324
 1840SOL    HW117579   1.344   2.415   2.298
 1840SOL    HW217580   1.466   2.307   2.309
 1841SOL     OW17581   0.213   2.459   3.211
 1841SOL    HW117582   0.208   2.377   3.153
 1841SOL    HW217583   0.220   2.431   3.307
 1842SOL     OW17584   0.182   2.144   3.284
 1842SOL    HW117585   0.266   2.109   3.244
 1842SOL    HW217586   0.114   2.158   3.212
 1843SOL     OW17587   1.035   2.738   3.033
 1843SOL    HW117588   1.044   2.710   2.937
 1843SOL    HW217589   0.955   2.693   3.074
 1844SOL     OW17590   1.642   2.272   2.316
 1844SOL    HW117591   1.731   2.230   2.297
 1844SOL    HW217592   1.630   2.282   2.415
 1845SOL     OW17593   0.885   3.371   2.709
 1845SOL    HW117594   0.918   3.279   2.727
 1845SOL    HW217595   0.785   3.370   2.702
 1846SOL     OW17596   0.833   2.264   2.119
 1846SOL    HW117597   0.753   2.231   2.168
 1846SOL    HW217598   0.916   2.229   2.164
 1847SOL     OW17599   1.215   2.793   2.406
 1847SOL    HW117600   1.238   2.786   2.503
 1847SOL    HW217601   1.117   2.806   2.395
 1848SOL     OW17602   0.825   3.459   3.504
 1848SOL    HW117603   0.788   3.399   3.433
 1848SOL    HW217604   0.831   3.409   3.590
 1849SOL     OW17605   1.279   2.787   2.673
 1849SOL    HW117606   1.199   2.740   2.710
 1849SOL    HW217607   1.286   2.878   2.714
 1850SOL     OW17608   0.316   2.881   2.721
 1850SOL    HW117609   0.222   2.914   2.711
 1850SOL    HW217610   0.338   2.873   2.818
 1851SOL     OW17611   0.943   2.823   2.395
 1851SOL    HW117612   0.890   2.760   2.339
 1851SOL    HW217613   0.885   2.861   2.467
 1852SOL     OW17614   1.239   3.238   3.316
 1852SOL    HW117615   1.261   3.321   3.369
 1852SOL    HW217616   1.141   3.220   3.323
 1853SOL     OW17617   0.121   2.176   2.344
 1853SOL    HW117618   0.145   2.180   2.247
 1853SOL    HW217619   0.070   2.258   2.370
 1854SOL     OW17620   1.665   3.707   2.025
 1854SOL    HW117621   1.762   3.731   2.031
 1854SOL    HW217622   1.652   3.643   1.949
 1855SOL     OW17623   0.840   2.634   3.210
 1855SOL    HW117624   0.840   2.718   3.264
 1855SOL    HW217625   0.879   2.559   3.263
 1856SOL     OW17626   0.149   3.539   3.231
 1856SOL    HW117627   0.116   3.599   3.158
 1856SOL    HW217628   0.115   3.572   3.319
 1857SOL     OW17629   0.793   2.647   2.242
 1857SOL    HW117630   0.697   2.672   2.232
 1857SOL    HW217631   0.831   2.622   2.154
 1858SOL     OW17632   0.318   3.529   2.041
 1858SOL    HW117633   0.410   3.501   2.015
 1858SOL    HW217634   0.323   3.601   2.111
 1859SOL     OW17635   0.062   2.992   2.755
 1859SOL    HW117636   9.978   3.006   2.702
 1859SOL    HW217637   0.039   2.943   2.839
 1860SOL     OW17638   0.798   1.937   2.262
 1860SOL    HW117639   0.811   1.929   2.163
 1860SOL    HW217640   0.738   2.015   2.280
 1861SOL     OW17641   9.958   3.086   2.270
 1861SOL    HW117642   9.916   3.051   2.354
 1861SOL    HW217643   0.058   3.081   2.279
 1862SOL     OW17644   1.600   2.141   3.400
 1862SOL    HW117645   1.560   2.232   3.404
 1862SOL    HW217646   1.659   2.127   3.479
 1863SOL     OW17647   1.276   2.058   2.770
 1863SOL    HW117648   1.294   2.120   2.693
 1863SOL    HW217649   1.324   2.092   2.851
 1864SOL     OW17650   1.409   1.981   1.988
 1864SOL    HW117651   1.440   1.889   2.014
 1864SOL    HW217652   1.347   1.974   1.910
 1865SOL     OW17653   1.599   1.860   3.419
 1865SOL    HW117654   1.586   1.817   3.330
 1865SOL    HW217655   1.581   1.959   3.412
 1866SOL     OW17656   0.727   2.191   2.576
 1866SOL    HW117657   0.716   2.115   2.640
 1866SOL    HW217658   0.823   2.217   2.570
 1867SOL     OW17659   1.320   2.444   2.951
 1867SOL    HW117660   1.322   2.487   2.860
 1867SOL    HW217661   1.358   2.507   3.018
 1868SOL     OW17662   1.586   1.911   2.310
 1868SOL    HW117663   1.601   1.875   2.218
 1868SOL    HW217664   1.497   1.956   2.314
 1869SOL     OW17665   0.584   3.221   3.623
 1869SOL    HW117666   0.543   3.293   3.566
 1869SOL    HW217667   0.672   3.254   3.659
 1870SOL     OW17668   0.453   2.979   3.530
 1870SOL    HW117669   0.502   2.955   3.446
 1870SOL    HW217670   0.475   3.072   3.557
 1871SOL     OW17671   0.142   3.202   2.930
 1871SOL    HW117672   0.134   3.141   2.851
 1871SOL    HW217673   0.060   3.194   2.987
 1872SOL     OW17674   1.142   2.401   2.708
 1872SOL    HW117675   1.223   2.354   2.673
 1872SOL    HW217676   1.113   2.358   2.793
 1873SOL     OW17677   1.749   2.460   3.570
 1873SOL    HW117678   1.747   2.540   3.510
 1873SOL    HW217679   1.842   2.424   3.575
 1874SOL     OW17680   1.408   2.187   2.979
 1874SOL    HW117681   1.382   2.283   2.964
 1874SOL    HW217682   1.390   2.163   3.075
 1875SOL     OW17683   1.536   2.311   3.669
 1875SOL    HW117684   1.614   2.365   3.636
 1875SOL    HW217685   1.569   2.241   3.732
 1876SOL     OW17686   1.334   2.592   2.256
 1876SOL    HW117687   1.276   2.657   2.304
 1876SOL    HW217688   1.427   2.630   2.249
 1877SOL     OW17689   1.559   2.768   2.553
 1877SOL    HW117690   1.556   2.750   2.454
 1877SOL    HW217691   1.467   2.760   2.591
 1878SOL     OW17692   1.757   2.682   3.394
 1878SOL    HW117693   1.688   2.755   3.393
 1878SOL    HW217694   1.848   2.721   3.400
 1879SOL     OW17695   1.598   2.178   2.031
 1879SOL    HW117696   1.607   2.198   2.129
 1879SOL    HW217697   1.530   2.105   2.019
 1880SOL     OW17698   0.731   3.302   3.297
 1880SOL    HW117699   0.681   3.387   3.277
 1880SOL    HW217700   0.695   3.228   3.240
 1881SOL     OW17701   0.174   2.151   3.553
 1881SOL    HW117702   0.183   2.146   3.454
 1881SOL    HW217703   0.086   2.111   3.581
 1882SOL     OW17704   0.077   3.601   3.512
 1882SOL    HW117705   0.170   3.611   3.546
 1882SOL    HW217706   0.029   3.532   3.566
 1883SOL     OW17707   0.284   2.456   2.094
 1883SOL    HW117708   0.348   2.484   2.023
 1883SOL    HW217709   0.294   2.516   2.174
 1884SOL     OW17710   1.782   2.054   3.206
 1884SOL    HW117711   1.716   2.092   3.271
 1884SOL    HW217712   1.751   2.071   3.112
 1885SOL     OW17713   0.460   3.677   2.562
 1885SOL    HW117714   0.375   3.628   2.541
 1885SOL    HW217715   0.531   3.648   2.499
 1886SOL     OW17716   0.367   3.139   3.085
 1886SOL    HW117717   0.360   3.173   3.179
 1886SOL    HW217718   0.290   3.175   3.032
 1887SOL     OW17719   1.258   3.369   3.654
 1887SOL    HW117720   1.205   3.286   3.639
 1887SOL    HW217721   1.214   3.446   3.609
 1888SOL     OW17722   0.631   3.011   2.384
 1888SOL    HW117723   0.681   2.979   2.304
 1888SOL    HW217724   0.685   2.994   2.466
 1889SOL     OW17725   0.350   2.633   2.574
 1889SOL    HW117726   0.364   2.714   2.631
 1889SOL    HW217727   0.424   2.567   2.590
 1890SOL     OW17728   0.214   2.191   2.080
 1890SOL    HW117729   0.280   2.140   2.025
 1890SOL    HW217730   0.241   2.287   2.084
 1891SOL     OW17731   0.898   2.505   2.006
 1891SOL    HW117732   0.998   2.507   2.014
 1891SOL    HW217733   0.864   2.420   2.047
 1892SOL     OW17734   1.342   2.042   2.343
 1892SOL    HW117735   1.263   2.021   2.400
 1892SOL    HW217736   1.347   2.140   2.326
 1893SOL     OW17737   1.439   2.371   3.363
 1893SOL    HW117738   1.383   2.401   3.440
 1893SOL    HW217739   1.388   2.302   3.310
 1894SOL     OW17740   0.021   1.993   2.044
 1894SOL    HW117741   0.073   1.919   2.087
 1894SOL    HW217742   0.075   2.078   2.047
 1895SOL     OW17743   0.317   2.883   3.000
 1895SOL    HW117744   0.338   2.814   3.069
 1895SOL    HW217745   0.343   2.973   3.034
 1896SOL     OW17746   0.614   2.658   3.051
 1896SOL    HW117747   0.688   2.651   3.117
 1896SOL    HW217748   0.528   2.676   3.099
 1897SOL     OW17749   0.860   2.860   3.360
 1897SOL    HW117750   0.916   2.916   3.297
 1897SOL    HW217751   0.849   2.909   3.446
 1898SOL     OW17752   1.179   2.880   3.536
 1898SOL    HW117753   1.098   2.825   3.554
 1898SOL    HW217754   1.261   2.826   3.556
 1899SOL     OW17755   1.099   2.045   2.495
 1899SOL    HW117756   1.057   2.135   2.509
 1899SOL    HW217757   1.065   1.981   2.564
 1900SOL     OW17758   1.162   3.598   3.548
 1900SOL    HW117759   1.100   3.608   3.470
 1900SOL    HW217760   1.225   3.675   3.551
 1901SOL     OW17761   0.729   1.981   2.744
 1901SOL    HW117762   0.691   1.910   2.804
 1901SOL    HW217763   0.829   1.973   2.741
 1902SOL     OW17764   0.391   3.517   3.089
 1902SOL    HW117765   0.355   3.484   3.002
 1902SOL    HW217766   0.316   3.526   3.154
 1903SOL     OW17767   1.015   3.097   2.715
 1903SOL    HW117768   1.050   3.129   2.626
 1903SOL    HW217769   1.091   3.064   2.771
 1904SOL     OW17770   0.719   2.797   2.826
 1904SOL    HW117771   0.745   2.720   2.767
 1904SOL    HW217772   0.668   2.763   2.905
 1905SOL     OW17773   0.037   2.874   3.002
 1905SOL    HW117774   0.137   2.881   3.004
 1905SOL    HW217775   0.009   2.785   3.040
 1906SOL     OW17776   0.224   1.886   2.233
 1906SOL    HW117777   0.295   1.949   2.262
 1906SOL    HW217778   0.144   1.895   2.293
 1907SOL     OW17779   0.639   2.480   3.591
 1907SOL    HW117780   0.611   2.540   3.516
 1907SOL    HW217781   0.735   2.495   3.612
 1908SOL     OW17782   1.756   2.079   2.702
 1908SOL    HW117783   1.733   2.091   2.799
 1908SOL    HW217784   1.855   2.075   2.692
 1909SOL     OW17785   0.821   3.037   2.921
 1909SOL    HW117786   0.782   2.950   2.890
 1909SOL    HW217787   0.886   3.070   2.853
 1910SOL     OW17788   1.166   2.472   2.060
 1910SOL    HW117789   1.228   2.522   2.121
 1910SOL    HW217790   1.203   2.381   2.042
 1911SOL     OW17791   1.524   3.314   3.580
 1911SOL    HW117792   1.529   3.217   3.606
 1911SOL    HW217793   1.430   3.347   3.595
 1912SOL     OW17794   0.354   2.693   3.197
 1912SOL    HW117795   0.304   2.606   3.189
 1912SOL    HW217796   0.316   2.747   3.272
 1913SOL     OW17797   0.627   3.544   2.923
 1913SOL    HW117798   0.610   3.490   2.840
 1913SOL    HW217799   0.547   3.540   2.982
 1914SOL     OW17800   0.797   2.949   2.599
 1914SOL    HW117801   0.873   3.003   2.636
 1914SOL    HW217802   0.752   2.898   2.673
 1915SOL     OW17803   0.084   2.577   2.598
 1915SOL    HW117804   0.065   2.532   2.685
 1915SOL    HW217805   0.182   2.599   2.591
 1916SOL     OW17806   0.101   2.716   3.625
 1916SOL    HW117807   0.034   2.643   3.611
 1916SOL    HW217808   0.104   2.740   3.722
 1917SOL     OW17809   0.981   3.623   3.350
 1917SOL    HW117810   0.924   3.559   3.401
 1917SOL    HW217811   0.923   3.681   3.292
 1918SOL     OW17812   1.253   3.015   2.847
 1918SOL    HW117813   1.320   3.090   2.846
 1918SOL    HW217814   1.268   2.959   2.929
 1919SOL     OW17815   0.583   2.212   3.611
 1919SOL    HW117816   0.637   2.170   3.538
 1919SOL    HW217817   0.599   2.311   3.610
 1920SOL     OW17818   0.531   2.709   2.217
 1920SOL    HW117819   0.523   2.791   2.161
 1920SOL    HW217820   0.440   2.681   2.249
 1921SOL     OW17821   1.657   2.760   2.882
 1921SOL    HW117822   1.664   2.837   2.819
 1921SOL    HW217823   1.583   2.777   2.947
 1922SOL     OW17824   1.356   2.135   3.243
 1922SOL    HW117825   1.430   2.104   3.304
 1922SOL    HW217826   1.295   2.058   3.224
 1923SOL     OW17827   0.017   1.925   2.411
 1923SOL    HW117828   9.929   1.921   2.457
 1923SOL    HW217829   0.044   2.021   2.398
 1924SOL     OW17830   1.313   1.982   3.588
 1924SOL    HW117831   1.347   1.970   3.682
 1924SOL    HW217832   1.248   2.058   3.586
 1925SOL     OW17833   0.468   3.433   3.490
 1925SOL    HW117834   0.415   3.500   3.542
 1925SOL    HW217835   0.518   3.480   3.417
 1926SOL     OW17836   1.768   3.302   3.444
 1926SOL    HW117837   1.820   3.386   3.459
 1926SOL    HW217838   1.679   3.310   3.489
 1927SOL     OW17839   1.075   2.310   2.957
 1927SOL    HW117840   1.157   2.360   2.983
 1927SOL    HW217841   1.077   2.218   2.998
 1928SOL     OW17842   0.355   3.334   2.615
 1928SOL    HW117843   0.362   3.240   2.583
 1928SOL    HW217844   0.278   3.379   2.569
 1929SOL     OW17845   0.320   3.620   3.643
 1929SOL    HW117846   0.355   3.714   3.649
 1929SOL    HW217847   0.311   3.583   3.735
 1930SOL     OW17848   0.134   3.168   3.503
 1930SOL    HW117849   0.068   3.101   3.536
 1930SOL    HW217850   0.096   3.218   3.425
 1931SOL     OW17851   0.271   3.433   2.860
 1931SOL    HW117852   0.216   3.355   2.891
 1931SOL    HW217853   0.310   3.412   2.771
 1932SOL     OW17854   1.012   1.959   2.761
 1932SOL    HW117855   1.105   1.993   2.772
 1932SOL    HW217856   0.996   1.885   2.826
 1933SOL     OW17857   1.625   2.297   2.596
 1933SOL    HW117858   1.651   2.377   2.651
 1933SOL    HW217859   1.674   2.217   2.628
 1934SOL     OW17860   0.784   2.952   2.151
 1934SOL    HW117861   0.874   2.979   2.185
 1934SOL    HW217862   0.794   2.880   2.083
 1935SOL     OW17863   0.838   1.920   1.982
 1935SOL    HW117864   0.895   1.838   1.988
 1935SOL    HW217865   0.895   1.998   1.956
 1936SOL     OW17866   0.544   2.435   2.587
 1936SOL    HW117867   0.552   2.341   2.621
 1936SOL    HW217868   0.613   2.451   2.517
 1937SOL     OW17869   0.600   2.910   3.311
 1937SOL    HW117870   0.696   2.891   3.331
 1937SOL    HW217871   0.594   2.982   3.242
 1938SOL     OW17872   1.720   2.972   3.175
 1938SOL    HW117873   1.729   3.071   3.171
 1938SOL    HW217874   1.792   2.930   3.119
 1939SOL     OW17875   0.579   3.483   1.973
 1939SOL    HW117876   0.600   3.580   1.965
 1939SOL    HW217877   0.609   3.450   2.063
 1940SOL     OW17878   1.329   2.974   3.324
 1940SOL    HW117879   1.267   2.930   3.390
 1940SOL    HW217880   1.307   3.071   3.318
 1941SOL     OW17881   0.595   3.539   3.268
 1941SOL    HW117882   0.650   3.620   3.250
 1941SOL    HW217883   0.522   3.533   3.200
 1942SOL     OW17884   0.230   2.421   3.498
 1942SOL    HW117885   0.222   2.326   3.528
 1942SOL    HW217886   0.281   2.473   3.566
 1943SOL     OW17887   1.680   3.330   2.926
 1943SOL    HW117888   1.749   3.402   2.911
 1943SOL    HW217889   1.692   3.290   3.017
 1944SOL     OW17890   0.011   2.728   2.372
 1944SOL    HW117891   9.915   2.752   2.363
 1944SOL    HW217892   0.028   2.688   2.462
 1945SOL     OW17893   0.555   2.648   3.397
 1945SOL    HW117894   0.476   2.618   3.344
 1945SOL    HW217895   0.575   2.744   3.376
 1946SOL     OW17896   1.662   2.975   2.706
 1946SOL    HW117897   1.626   3.066   2.688
 1946SOL    HW217898   1.626   2.911   2.639
 1947SOL     OW17899   0.676   2.435   2.899
 1947SOL    HW117900   0.764   2.401   2.931
 1947SOL    HW217901   0.648   2.514   2.953
 1948SOL     OW17902   0.637   3.109   3.122
 1948SOL    HW117903   0.543   3.128   3.094
 1948SOL    HW217904   0.694   3.094   3.041
 1949SOL     OW17905   0.358   3.223   3.344
 1949SOL    HW117906   0.398   3.303   3.388
 1949SOL    HW217907   0.281   3.190   3.399
 1950SOL     OW17908   1.659   3.549   3.642
 1950SOL    HW117909   1.615   3.460   3.632
 1950SOL    HW217910   1.623   3.612   3.574
 1951SOL     OW17911   1.363   3.032   2.474
 1951SOL    HW117912   1.460   3.031   2.450
 1951SOL    HW217913   1.316   2.956   2.429
 1952SOL     OW17914   0.647   2.177   2.317
 1952SOL    HW117915   0.551   2.150   2.308
 1952SOL    HW217916   0.674   2.175   2.413
 1953SOL     OW17917   1.619   1.869   2.580
 1953SOL    HW117918   1.603   1.891   2.484
 1953SOL    HW217919   1.669   1.945   2.623
 1954SOL     OW17920   1.175   2.609   3.233
 1954SOL    HW117921   1.273   2.603   3.215
 1954SOL    HW217922   1.131   2.663   3.162
 1955SOL     OW17923   0.794   2.578   2.678
 1955SOL    HW117924   0.739   2.516   2.734
 1955SOL    HW217925   0.791   2.549   2.583
 1956SOL     OW17926   1.429   3.233   2.865
 1956SOL    HW117927   1.388   3.294   2.797
 1956SOL    HW217928   1.524   3.262   2.881
 1957SOL     OW17929   1.351   2.269   2.596
 1957SOL    HW117930   1.334   2.283   2.498
 1957SOL    HW217931   1.450   2.276   2.613
 1958SOL     OW17932   1.085   3.321   4.437
 1958SOL    HW117933   1.180   3.352   4.439
 1958SOL    HW217934   1.046   3.340   4.346
 1959SOL     OW17935   1.612   3.133   4.251
 1959SOL    HW117936   1.624   3.206   4.319
 1959SOL    HW217937   1.701   3.094   4.229
 1960SOL     OW17938   1.670   2.372   5.103
 1960SOL    HW117939   1.572   2.382   5.116
 1960SOL    HW217940   1.718   2.402   5.186
 1961SOL     OW17941   0.379   2.069   3.710
 1961SOL    HW117942   0.300   2.092   3.653
 1961SOL    HW217943   0.459   2.121   3.679
 1962SOL     OW17944   1.347   3.412   4.495
 1962SOL    HW117945   1.361   3.508   4.518
 1962SOL    HW217946   1.436   3.370   4.474
 1963SOL     OW17947   0.998   2.736   5.420
 1963SOL    HW117948   0.991   2.654   5.363
 1963SOL    HW217949   0.909   2.753   5.464
 1964SOL     OW17950   0.573   3.331   4.106
 1964SOL    HW117951   0.528   3.357   4.191
 1964SOL    HW217952   0.646   3.265   4.125
 1965SOL     OW17953   0.567   1.894   3.846
 1965SOL    HW117954   0.660   1.930   3.842
 1965SOL    HW217955   0.503   1.962   3.808
 1966SOL     OW17956   1.561   2.819   5.153
 1966SOL    HW117957   1.483   2.876   5.181
 1966SOL    HW217958   1.603   2.858   5.071
 1967SOL     OW17959   1.344   2.924   4.931
 1967SOL    HW117960   1.318   2.927   5.027
 1967SOL    HW217961   1.405   3.001   4.911
 1968SOL     OW17962   0.973   3.201   5.111
 1968SOL    HW117963   0.893   3.259   5.093
 1968SOL    HW217964   0.962   3.114   5.064
 1969SOL     OW17965   0.466   3.071   4.407
 1969SOL    HW117966   0.422   3.017   4.479
 1969SOL    HW217967   0.564   3.054   4.409
 1970SOL     OW17968   0.823   2.437   4.256
 1970SOL    HW117969   0.822   2.528   4.213
 1970SOL    HW217970   0.831   2.367   4.185
 1971SOL     OW17971   1.338   2.440   5.452
 1971SOL    HW117972   1.427   2.404   5.481
 1971SOL    HW217973   1.269   2.368   5.457
 1972SOL     OW17974   0.440   3.237   3.861
 1972SOL    HW117975   0.493   3.245   3.777
 1972SOL    HW217976   0.482   3.292   3.933
 1973SOL     OW17977   0.263   2.656   4.144
 1973SOL    HW117978   0.314   2.625   4.224
 1973SOL    HW217979   0.172   2.685   4.171
 1974SOL     OW17980   0.764   3.558   4.292
 1974SOL    HW117981   0.829   3.489   4.260
 1974SOL    HW217982   0.764   3.636   4.230
 1975SOL     OW17983   1.783   3.455   4.104
 1975SOL    HW117984   1.879   3.428   4.099
 1975SOL    HW217985   1.760   3.513   4.025
 1976SOL     OW17986   1.712   2.185   4.753
 1976SOL    HW117987   1.735   2.278   4.781
 1976SOL    HW217988   1.613   2.175   4.748
 1977SOL     OW17989   1.077   2.205   4.105
 1977SOL    HW117990   1.136   2.285   4.100
 1977SOL    HW217991   1.101   2.149   4.184
 1978SOL     OW17992   0.227   2.872   5.287
 1978SOL    HW117993   0.305   2.930   5.311
 1978SOL    HW217994   0.173   2.852   5.369
 1979SOL     OW17995   0.393   2.542   3.705
 1979SOL    HW117996   0.402   2.641   3.715
 1979SOL    HW217997   0.479   2.503   3.672
 1980SOL     OW17998   0.682   3.446   4.530
 1980SOL    HW117999   0.727   3.493   4.454
 1980SOL    HW218000   0.600   3.400   4.496
 1981SOL     OW18001   1.012   2.485   5.301
 1981SOL    HW118002   1.055   2.416   5.360
 1981SOL    HW218003   1.071   2.503   5.223
 1982SOL     OW18004   1.616   3.308   4.490
 1982SOL    HW118005   1.620   3.327   4.588
 1982SOL    HW218006   1.676   3.370   4.441
 1983SOL     OW18007   0.347   3.098   4.162
 1983SOL    HW118008   0.390   3.088   4.252
 1983SOL    HW218009   0.406   3.056   4.092
 1984SOL     OW18010   1.097   2.085   3.860
 1984SOL    HW118011   1.158   2.006   3.865
 1984SOL    HW218012   1.093   2.130   3.949
 1985SOL     OW18013   0.222   2.309   5.023
 1985SOL    HW118014   0.217   2.214   4.992
 1985SOL    HW218015   0.237   2.369   4.945
 1986SOL     OW18016   1.403   2.655   4.966
 1986SOL    HW118017   1.376   2.744   4.929
 1986SOL    HW218018   1.473   2.667   5.035
 1987SOL     OW18019   0.376   2.108   4.140
 1987SOL    HW118020   0.341   2.155   4.221
 1987SOL    HW218021   0.330   2.143   4.059
 1988SOL     OW18022   1.551   3.606   5.024
 1988SOL    HW118023   1.477   3.617   4.958
 1988SOL    HW218024   1.638   3.595   4.976
 1989SOL     OW18025   1.771   2.436   4.853
 1989SOL    HW118026   1.864   2.472   4.860
 1989SOL    HW218027   1.734   2.420   4.945
 1990SOL     OW18028   1.798   3.576   4.886
 1990SOL    HW118029   1.837   3.614   4.969
 1990SOL    HW218030   1.871   3.561   4.818
 1991SOL     OW18031   0.911   2.323   4.504
 1991SOL    HW118032   1.006   2.341   4.529
 1991SOL    HW218033   0.893   2.361   4.413
 1992SOL     OW18034   1.260   2.825   3.858
 1992SOL    HW118035   1.270   2.774   3.944
 1992SOL    HW218036   1.224   2.765   3.787
 1993SOL     OW18037   1.122   2.274   5.467
 1993SOL    HW118038   1.128   2.269   5.567
 1993SOL    HW218039   1.069   2.196   5.433
 1994SOL     OW18040   1.738   2.539   4.071
 1994SOL    HW118041   1.695   2.449   4.080
 1994SOL    HW218042   1.805   2.552   4.144
 1995SOL     OW18043   1.030   3.639   3.794
 1995SOL    HW118044   1.071   3.621   3.704
 1995SOL    HW218045   1.047   3.561   3.854
 1996SOL     OW18046   0.757   1.770   5.451
 1996SOL    HW118047   0.837   1.716   5.424
 1996SOL    HW218048   0.786   1.850   5.503
 1997SOL     OW18049   1.624   2.534   4.642
 1997SOL    HW118050   1.611   2.633   4.646
 1997SOL    HW218051   1.680   2.504   4.719
 1998SOL     OW18052   1.054   3.206   5.381
 1998SOL    HW118053   1.089   3.115   5.402
 1998SOL    HW218054   1.015   3.207   5.289
 1999SOL     OW18055   0.776   2.978   5.404
 1999SOL    HW118056   0.713   3.055   5.417
 1999SOL    HW218057   0.780   2.924   5.488
 2000SOL     OW18058   1.421   1.817   4.499
 2000SOL    HW118059   1.372   1.903   4.509
 2000SOL    HW218060   1.511   1.834   4.459
 2001SOL     OW18061   1.840   2.062   5.488
 2001SOL    HW118062   1.855   2.019   5.577
 2001SOL    HW218063   1.766   2.014   5.441
 2002SOL     OW18064   9.967   2.492   4.268
 2002SOL    HW118065   0.019   2.458   4.346
 2002SOL    HW218066   9.974   2.592   4.263
 2003SOL     OW18067   1.113   2.651   4.668
 2003SOL    HW118068   1.186   2.709   4.630
 2003SOL    HW218069   1.117   2.561   4.625
 2004SOL     OW18070   0.262   3.366   4.125
 2004SOL    HW118071   0.292   3.270   4.124
 2004SOL    HW218072   0.290   3.411   4.040
 2005SOL     OW18073   1.449   3.186   4.926
 2005SOL    HW118074   1.415   3.226   4.842
 2005SOL    HW218075   1.383   3.200   5.000
 2006SOL     OW18076   0.227   3.490   4.363
 2006SOL    HW118077   0.144   3.546   4.360
 2006SOL    HW218078   0.241   3.445   4.275
 2007SOL     OW18079   1.719   3.199   4.957
 2007SOL    HW118080   1.750   3.227   5.048
 2007SOL    HW218081   1.619   3.199   4.954
 2008SOL     OW18082   0.472   2.807   3.742
 2008SOL    HW118083   0.458   2.861   3.659
 2008SOL    HW218084   0.466   2.866   3.822
 2009SOL     OW18085   0.934   2.961   4.971
 2009SOL    HW118086   0.975   2.873   4.951
 2009SOL    HW218087   0.882   2.992   4.891
 2010SOL     OW18088   0.104   2.763   3.905
 2010SOL    HW118089   0.186   2.757   3.962
 2010SOL    HW218090   0.041   2.690   3.930
 2011SOL     OW18091   1.575   2.755   4.109
 2011SOL    HW118092   1.632   2.674   4.099
 2011SOL    HW218093   1.602   2.823   4.041
 2012SOL     OW18094   0.886   3.679   4.700
 2012SOL    HW118095   0.925   3.589   4.677
 2012SOL    HW218096   0.803   3.666   4.754
 2013SOL     OW18097   0.745   2.752   3.764
 2013SOL    HW118098   0.776   2.667   3.807
 2013SOL    HW218099   0.646   2.750   3.755
 2014SOL     OW18100   1.387   2.254   4.106
 2014SOL    HW118101   1.341   2.326   4.054
 2014SOL    HW218102   1.485   2.274   4.110
 2015SOL     OW18103   0.165   2.503   5.196
 2015SOL    HW118104   0.182   2.421   5.141
 2015SOL    HW218105   0.179   2.482   5.293
 2016SOL     OW18106   0.994   2.695   4.907
 2016SOL    HW118107   1.040   2.683   4.819
 2016SOL    HW218108   0.902   2.655   4.902
 2017SOL     OW18109   1.651   2.294   4.159
 2017SOL    HW118110   1.732   2.238   4.144
 2017SOL    HW218111   1.642   2.316   4.256
 2018SOL     OW18112   0.938   3.416   4.645
 2018SOL    HW118113   0.995   3.381   4.571
 2018SOL    HW218114   0.841   3.408   4.620
 2019SOL     OW18115   0.829   2.282   4.022
 2019SOL    HW118116   0.758   2.218   4.052
 2019SOL    HW218117   0.919   2.245   4.045
 2020SOL     OW18118   0.984   3.135   3.854
 2020SOL    HW118119   1.035   3.117   3.937
 2020SOL    HW218120   1.045   3.130   3.775
 2021SOL     OW18121   1.776   3.492   4.377
 2021SOL    HW118122   1.736   3.579   4.405
 2021SOL    HW218123   1.774   3.486   4.277
 2022SOL     OW18124   1.197   2.760   4.317
 2022SOL    HW118125   1.223   2.781   4.411
 2022SOL    HW218126   1.106   2.797   4.299
 2023SOL     OW18127   0.849   3.484   5.276
 2023SOL    HW118128   0.802   3.434   5.204
 2023SOL    HW218129   0.836   3.437   5.363
 2024SOL     OW18130   1.316   2.815   4.566
 2024SOL    HW118131   1.405   2.798   4.608
 2024SOL    HW218132   1.275   2.897   4.606
 2025SOL     OW18133   0.336   2.911   4.619
 2025SOL    HW118134   0.253   2.957   4.588
 2025SOL    HW218135   0.333   2.901   4.719
 2026SOL     OW18136   0.946   2.854   4.239
 2026SOL    HW118137   0.895   2.786   4.186
 2026SOL    HW218138   0.883   2.903   4.299
 2027SOL     OW18139   1.252   3.226   5.112
 2027SOL    HW118140   1.281   3.319   5.136
 2027SOL    HW218141   1.152   3.224   5.106
 2028SOL     OW18142   0.058   2.155   4.153
 2028SOL    HW118143   0.102   2.177   4.066
 2028SOL    HW218144   0.115   2.185   4.229
 2029SOL     OW18145   1.680   3.656   3.897
 2029SOL    HW118146   1.768   3.705   3.898
 2029SOL    HW218147   1.669   3.609   3.810
 2030SOL     OW18148   0.160   3.652   5.057
 2030SOL    HW118149   0.095   3.642   4.981
 2030SOL    HW218150   0.117   3.618   5.141
 2031SOL     OW18151   0.787   2.666   4.111
 2031SOL    HW118152   0.692   2.694   4.102
 2031SOL    HW218153   0.817   2.622   4.026
 2032SOL     OW18154   0.347   3.568   3.925
 2032SOL    HW118155   0.431   3.611   3.891
 2032SOL    HW218156   0.319   3.613   4.010
 2033SOL     OW18157   1.341   3.611   4.846
 2033SOL    HW118158   1.372   3.625   4.752
 2033SOL    HW218159   1.262   3.549   4.846
 2034SOL     OW18160   0.090   3.027   4.582
 2034SOL    HW118161   0.029   3.020   4.503
 2034SOL    HW218162   0.047   2.985   4.662
 2035SOL     OW18163   0.816   1.892   4.110
 2035SOL    HW118164   0.824   1.881   4.011
 2035SOL    HW218165   0.754   1.967   4.131
 2036SOL     OW18166   0.089   3.014   4.177
 2036SOL    HW118167   0.181   3.051   4.182
 2036SOL    HW218168   0.052   3.026   4.085
 2037SOL     OW18169   1.513   2.171   5.288
 2037SOL    HW118170   1.455   2.238   5.242
 2037SOL    HW218171   1.551   2.211   5.371
 2038SOL     OW18172   1.321   2.075   4.527
 2038SOL    HW118173   1.333   2.154   4.468
 2038SOL    HW218174   1.353   2.097   4.619
 2039SOL     OW18175   1.380   1.924   3.855
 2039SOL    HW118176   1.382   1.825   3.845
 2039SOL    HW218177   1.361   1.948   3.950
 2040SOL     OW18178   1.661   1.938   5.324
 2040SOL    HW118179   1.617   1.864   5.273
 2040SOL    HW218180   1.610   2.023   5.309
 2041SOL     OW18181   0.691   2.121   4.421
 2041SOL    HW118182   0.646   2.041   4.462
 2041SOL    HW218183   0.770   2.146   4.477
 2042SOL     OW18184   1.383   2.457   4.758
 2042SOL    HW118185   1.463   2.482   4.703
 2042SOL    HW218186   1.374   2.520   4.835
 2043SOL     OW18187   1.612   1.915   4.116
 2043SOL    HW118188   1.639   1.862   4.035
 2043SOL    HW218189   1.513   1.931   4.114
 2044SOL     OW18190   0.554   3.252   5.395
 2044SOL    HW118191   0.506   3.324   5.346
 2044SOL    HW218192   0.643   3.285   5.426
 2045SOL     OW18193   0.460   3.003   5.333
 2045SOL    HW118194   0.482   2.985   5.237
 2045SOL    HW218195   0.485   3.097   5.356
 2046SOL     OW18196   0.136   3.255   4.738
 2046SOL    HW118197   0.127   3.183   4.669
 2046SOL    HW218198   0.053   3.258   4.794
 2047SOL     OW18199   1.179   2.397   4.569
 2047SOL    HW118200   1.232   2.367   4.490
 2047SOL    HW218201   1.240   2.410   4.647
 2048SOL     OW18202   1.787   2.461   5.338
 2048SOL    HW118203   1.779   2.560   5.326
 2048SOL    HW218204   1.879   2.438   5.370
 2049SOL     OW18205   1.433   2.186   4.762
 2049SOL    HW118206   1.405   2.282   4.763
 2049SOL    HW218207   1.441   2.153   4.856
 2050SOL     OW18208   1.598   2.337   5.493
 2050SOL    HW118209   1.664   2.387   5.437
 2050SOL    HW218210   1.641   2.310   5.579
 2051SOL     OW18211   1.313   2.684   4.088
 2051SOL    HW118212   1.266   2.710   4.172
 2051SOL    HW218213   1.410   2.708   4.095
 2052SOL     OW18214   1.535   2.835   4.367
 2052SOL    HW118215   1.542   2.815   4.270
 2052SOL    HW218216   1.440   2.824   4.397
 2053SOL     OW18217   1.774   2.730   5.307
 2053SOL    HW118218   1.692   2.759   5.258
 2053SOL    HW218219   1.851   2.788   5.283
 2054SOL     OW18220   1.608   2.095   3.836
 2054SOL    HW118221   1.650   2.097   3.927
 2054SOL    HW218222   1.528   2.035   3.838
 2055SOL     OW18223   0.730   3.360   5.069
 2055SOL    HW118224   0.669   3.439   5.063
 2055SOL    HW218225   0.692   3.285   5.016
 2056SOL     OW18226   0.060   3.617   5.334
 2056SOL    HW118227   0.151   3.633   5.374
 2056SOL    HW218228   0.016   3.541   5.382
 2057SOL     OW18229   0.234   2.214   4.358
 2057SOL    HW118230   0.194   2.294   4.401
 2057SOL    HW218231   0.266   2.151   4.428
 2058SOL     OW18232   1.371   3.464   5.180
 2058SOL    HW118233   1.305   3.528   5.219
 2058SOL    HW218234   1.435   3.513   5.122
 2059SOL     OW18235   0.255   2.462   3.930
 2059SOL    HW118236   0.304   2.491   3.848
 2059SOL    HW218237   0.276   2.524   4.006
 2060SOL     OW18238   1.802   2.133   5.015
 2060SOL    HW118239   1.749   2.205   5.059
 2060SOL    HW218240   1.774   2.125   4.919
 2061SOL     OW18241   0.505   3.666   4.381
 2061SOL    HW118242   0.418   3.636   4.342
 2061SOL    HW218243   0.580   3.617   4.336
 2062SOL     OW18244   0.347   3.167   4.897
 2062SOL    HW118245   0.337   3.201   4.990
 2062SOL    HW218246   0.276   3.206   4.839
 2063SOL     OW18247   1.100   3.459   5.480
 2063SOL    HW118248   1.088   3.364   5.450
 2063SOL    HW218249   1.129   3.515   5.403
 2064SOL     OW18250   0.766   3.145   4.164
 2064SOL    HW118251   0.782   3.081   4.088
 2064SOL    HW218252   0.770   3.095   4.250
 2065SOL     OW18253   0.426   2.582   4.356
 2065SOL    HW118254   0.506   2.637   4.381
 2065SOL    HW218255   0.453   2.487   4.345
 2066SOL     OW18256   0.230   2.191   3.921
 2066SOL    HW118257   0.287   2.151   3.848
 2066SOL    HW218258   0.238   2.291   3.917
 2067SOL     OW18259   0.111   2.421   4.492
 2067SOL    HW118260   0.163   2.501   4.522
 2067SOL    HW218261   0.056   2.387   4.569
 2068SOL     OW18262   0.506   2.991   3.954
 2068SOL    HW118263   0.606   2.992   3.952
 2068SOL    HW218264   0.471   3.077   3.915
 2069SOL     OW18265   1.119   2.530   3.759
 2069SOL    HW118266   1.073   2.599   3.703
 2069SOL    HW218267   1.184   2.480   3.702
 2070SOL     OW18268   0.860   2.523   3.881
 2070SOL    HW118269   0.954   2.521   3.846
 2070SOL    HW218270   0.837   2.434   3.921
 2071SOL     OW18271   1.341   1.989   4.114
 2071SOL    HW118272   1.270   1.973   4.183
 2071SOL    HW218273   1.361   2.087   4.110
 2072SOL     OW18274   1.393   2.397   5.184
 2072SOL    HW118275   1.378   2.433   5.276
 2072SOL    HW218276   1.318   2.425   5.124
 2073SOL     OW18277   0.044   1.981   3.862
 2073SOL    HW118278   0.088   1.913   3.921
 2073SOL    HW218279   0.091   2.069   3.872
 2074SOL     OW18280   0.289   2.893   4.889
 2074SOL    HW118281   0.319   2.830   4.960
 2074SOL    HW218282   0.321   2.985   4.911
 2075SOL     OW18283   1.672   2.901   3.903
 2075SOL    HW118284   1.770   2.913   3.919
 2075SOL    HW218285   1.655   2.888   3.806
 2076SOL     OW18286   0.770   2.850   5.164
 2076SOL    HW118287   0.838   2.887   5.101
 2076SOL    HW218288   0.780   2.893   5.254
 2077SOL     OW18289   1.168   2.949   5.425
 2077SOL    HW118290   1.101   2.876   5.410
 2077SOL    HW218291   1.207   2.940   5.516
 2078SOL     OW18292   1.141   2.014   4.309
 2078SOL    HW118293   1.189   2.029   4.396
 2078SOL    HW218294   1.064   1.952   4.324
 2079SOL     OW18295   1.177   3.632   5.274
 2079SOL    HW118296   1.109   3.634   5.200
 2079SOL    HW218297   1.186   3.724   5.313
 2080SOL     OW18298   0.549   1.909   4.521
 2080SOL    HW118299   0.467   1.865   4.485
 2080SOL    HW218300   0.584   1.858   4.600
 2081SOL     OW18301   0.369   3.633   4.876
 2081SOL    HW118302   0.331   3.588   4.795
 2081SOL    HW218303   0.300   3.637   4.948
 2082SOL     OW18304   0.988   3.092   4.555
 2082SOL    HW118305   1.022   3.174   4.508
 2082SOL    HW218306   1.063   3.051   4.608
 2083SOL     OW18307   0.617   2.880   4.590
 2083SOL    HW118308   0.639   2.791   4.551
 2083SOL    HW218309   0.519   2.884   4.612
 2084SOL     OW18310   0.016   2.921   4.827
 2084SOL    HW118311   0.110   2.911   4.858
 2084SOL    HW218312   9.962   2.843   4.860
 2085SOL     OW18313   0.214   1.883   4.077
 2085SOL    HW118314   0.279   1.952   4.110
 2085SOL    HW218315   0.131   1.887   4.132
 2086SOL     OW18316   0.734   2.483   5.351
 2086SOL    HW118317   0.687   2.528   5.275
 2086SOL    HW218318   0.832   2.476   5.330
 2087SOL     OW18319   0.016   3.028   3.911
 2087SOL    HW118320   0.049   2.935   3.894
 2087SOL    HW218321   0.070   3.093   3.858
 2088SOL     OW18322   1.779   2.124   4.493
 2088SOL    HW118323   1.769   2.130   4.592
 2088SOL    HW218324   1.877   2.121   4.469
 2089SOL     OW18325   0.790   3.033   4.743
 2089SOL    HW118326   0.728   2.970   4.694
 2089SOL    HW218327   0.861   3.065   4.680
 2090SOL     OW18328   1.221   2.443   4.002
 2090SOL    HW118329   1.254   2.528   4.043
 2090SOL    HW218330   1.180   2.462   3.913
 2091SOL     OW18331   1.524   3.279   5.306
 2091SOL    HW118332   1.476   3.193   5.324
 2091SOL    HW218333   1.463   3.342   5.258
 2092SOL     OW18334   0.324   2.700   5.094
 2092SOL    HW118335   0.274   2.618   5.124
 2092SOL    HW218336   0.306   2.775   5.158
 2093SOL     OW18337   0.814   3.316   3.735
 2093SOL    HW118338   0.774   3.379   3.801
 2093SOL    HW218339   0.878   3.255   3.781
 2094SOL     OW18340   0.635   3.590   4.770
 2094SOL    HW118341   0.638   3.530   4.690
 2094SOL    HW218342   0.540   3.603   4.798
 2095SOL     OW18343   0.778   3.003   4.404
 2095SOL    HW118344   0.857   3.042   4.452
 2095SOL    HW218345   0.723   2.950   4.468
 2096SOL     OW18346   0.946   3.362   4.196
 2096SOL    HW118347   1.004   3.379   4.117
 2096SOL    HW218348   0.889   3.281   4.180
 2097SOL     OW18349   0.275   2.630   4.578
 2097SOL    HW118350   0.330   2.606   4.498
 2097SOL    HW218351   0.282   2.728   4.595
 2098SOL     OW18352   0.063   2.824   5.510
 2098SOL    HW118353   0.020   2.739   5.478
 2098SOL    HW218354   0.092   2.812   5.605
 2099SOL     OW18355   0.980   3.617   5.073
 2099SOL    HW118356   0.942   3.558   5.144
 2099SOL    HW218357   0.910   3.682   5.044
 2100SOL     OW18358   1.208   3.021   4.708
 2100SOL    HW118359   1.234   3.118   4.712
 2100SOL    HW218360   1.235   2.976   4.793
 2101SOL     OW18361   0.450   2.272   5.479
 2101SOL    HW118362   0.484   2.252   5.387
 2101SOL    HW218363   0.483   2.362   5.508
 2102SOL     OW18364   0.528   2.746   4.079
 2102SOL    HW118365   0.516   2.836   4.039
 2102SOL    HW218366   0.438   2.707   4.102
 2103SOL     OW18367   1.573   2.810   4.690
 2103SOL    HW118368   1.601   2.885   4.630
 2103SOL    HW218369   1.592   2.834   4.785
 2104SOL     OW18370   1.466   2.099   5.017
 2104SOL    HW118371   1.501   2.122   5.108
 2104SOL    HW218372   1.414   2.014   5.022
 2105SOL     OW18373   9.982   1.903   4.227
 2105SOL    HW118374   9.891   1.884   4.263
 2105SOL    HW218375   9.988   2.000   4.202
 2106SOL     OW18376   0.429   3.471   5.288
 2106SOL    HW118377   0.383   3.536   5.349
 2106SOL    HW218378   0.479   3.522   5.218
 2107SOL     OW18379   1.784   3.275   5.213
 2107SOL    HW118380   1.830   3.361   5.237
 2107SOL    HW218381   1.692   3.275   5.252
 2108SOL     OW18382   0.468   3.346   4.384
 2108SOL    HW118383   0.454   3.247   4.395
 2108SOL    HW218384   0.380   3.393   4.388
 2109SOL     OW18385   1.106   3.461   4.857
 2109SOL    HW118386   1.039   3.440   4.786
 2109SOL    HW218387   1.059   3.500   4.937
 2110SOL     OW18388   0.298   3.648   5.470
 2110SOL    HW118389   0.330   3.743   5.476
 2110SOL    HW218390   0.283   3.613   5.563
 2111SOL     OW18391   0.083   3.216   5.296
 2111SOL    HW118392   0.025   3.137   5.320
 2111SOL    HW218393   0.032   3.276   5.234
 2112SOL     OW18394   0.242   3.501   4.664
 2112SOL    HW118395   0.209   3.410   4.690
 2112SOL    HW218396   0.247   3.507   4.564
 2113SOL     OW18397   1.083   3.059   4.101
 2113SOL    HW118398   1.172   3.077   4.143
 2113SOL    HW218399   1.039   2.982   4.146
 2114SOL     OW18400   1.623   2.345   4.431
 2114SOL    HW118401   1.629   2.416   4.501
 2114SOL    HW218402   1.679   2.267   4.458
 2115SOL     OW18403   0.776   2.979   3.933
 2115SOL    HW118404   0.851   3.038   3.901
 2115SOL    HW218405   0.783   2.890   3.889
 2116SOL     OW18406   0.842   1.948   3.826
 2116SOL    HW118407   0.906   1.871   3.824
 2116SOL    HW218408   0.892   2.032   3.842
 2117SOL     OW18409   0.570   2.354   4.340
 2117SOL    HW118410   0.588   2.264   4.380
 2117SOL    HW218411   0.655   2.394   4.307
 2118SOL     OW18412   0.538   2.959   5.079
 2118SOL    HW118413   0.621   2.910   5.104
 2118SOL    HW218414   0.560   3.039   5.025
 2119SOL     OW18415   1.681   2.923   4.929
 2119SOL    HW118416   1.692   3.022   4.937
 2119SOL    HW218417   1.766   2.883   4.894
 2120SOL     OW18418   0.177   3.210   3.773
 2120SOL    HW118419   0.178   3.196   3.674
 2120SOL    HW218420   0.270   3.222   3.806
 2121SOL     OW18421   0.680   3.479   3.901
 2121SOL    HW118422   0.635   3.567   3.883
 2121SOL    HW218423   0.644   3.440   3.986
 2122SOL     OW18424   1.333   2.983   5.205
 2122SOL    HW118425   1.276   2.957   5.283
 2122SOL    HW218426   1.304   3.073   5.172
 2123SOL     OW18427   0.565   3.589   5.077
 2123SOL    HW118428   0.634   3.661   5.068
 2123SOL    HW218429   0.498   3.598   5.004
 2124SOL     OW18430   0.206   2.432   5.462
 2124SOL    HW118431   0.267   2.354   5.456
 2124SOL    HW218432   0.225   2.484   5.546
 2125SOL     OW18433   1.655   3.375   4.749
 2125SOL    HW118434   1.689   3.463   4.782
 2125SOL    HW218435   1.678   3.304   4.816
 2126SOL     OW18436   9.999   2.762   4.223
 2126SOL    HW118437   0.041   2.853   4.219
 2126SOL    HW218438   9.901   2.770   4.205
 2127SOL     OW18439   0.604   2.629   5.159
 2127SOL    HW118440   0.512   2.655   5.129
 2127SOL    HW218441   0.664   2.708   5.157
 2128SOL     OW18442   1.641   3.032   4.535
 2128SOL    HW118443   1.623   3.129   4.523
 2128SOL    HW218444   1.603   2.981   4.458
 2129SOL     OW18445   0.722   2.463   4.644
 2129SOL    HW118446   0.793   2.407   4.600
 2129SOL    HW218447   0.675   2.410   4.714
 2130SOL     OW18448   0.622   3.165   4.917
 2130SOL    HW118449   0.527   3.172   4.887
 2130SOL    HW218450   0.678   3.124   4.845
 2131SOL     OW18451   0.243   2.502   4.825
 2131SOL    HW118452   0.264   2.570   4.895
 2131SOL    HW218453   0.257   2.541   4.734
 2132SOL     OW18454   0.311   3.262   5.148
 2132SOL    HW118455   0.353   3.342   5.192
 2132SOL    HW218456   0.230   3.235   5.200
 2133SOL     OW18457   1.639   3.503   5.430
 2133SOL    HW118458   1.589   3.421   5.401
 2133SOL    HW218459   1.608   3.581   5.377
 2134SOL     OW18460   1.346   3.096   4.182
 2134SOL    HW118461   1.438   3.104   4.220
 2134SOL    HW218462   1.353   3.077   4.084
 2135SOL     OW18463   0.654   2.109   4.151
 2135SOL    HW118464   0.556   2.105   4.136
 2135SOL    HW218465   0.673   2.115   4.249
 2136SOL     OW18466   1.660   1.894   4.385
 2136SOL    HW118467   1.648   1.907   4.286
 2136SOL    HW218468   1.701   1.976   4.425
 2137SOL     OW18469   1.172   2.560   5.079
 2137SOL    HW118470   1.259   2.595   5.045
 2137SOL    HW218471   1.096   2.602   5.029
 2138SOL     OW18472   0.679   2.654   4.458
 2138SOL    HW118473   0.689   2.585   4.529
 2138SOL    HW218474   0.745   2.637   4.385
 2139SOL     OW18475   1.280   3.284   4.730
 2139SOL    HW118476   1.218   3.342   4.781
 2139SOL    HW218477   1.304   3.328   4.643
 2140SOL     OW18478   1.357   2.300   4.377
 2140SOL    HW118479   1.352   2.285   4.279
 2140SOL    HW218480   1.451   2.325   4.403
 2141SOL     OW18481   1.653   2.487   6.929
 2141SOL    HW118482   1.589   2.428   6.979
 2141SOL    HW218483   1.701   2.546   6.994
 2142SOL     OW18484   1.422   3.449   6.374
 2142SOL    HW118485   1.402   3.545   6.398
 2142SOL    HW218486   1.500   3.446   6.312
 2143SOL     OW18487   1.165   1.925   6.833
 2143SOL    HW118488   1.100   1.861   6.875
 2143SOL    HW218489   1.235   1.873   6.784
 2144SOL     OW18490   1.016   2.701   7.295
 2144SOL    HW118491   1.009   2.638   7.217
 2144SOL    HW218492   0.925   2.718   7.332
 2145SOL     OW18493   0.520   2.044   5.622
 2145SOL    HW118494   0.619   2.028   5.618
 2145SOL    HW218495   0.498   2.127   5.571
 2146SOL     OW18496   1.594   2.897   7.070
 2146SOL    HW118497   1.499   2.916   7.048
 2146SOL    HW218498   1.652   2.922   6.993
 2147SOL     OW18499   1.444   2.910   6.752
 2147SOL    HW118500   1.388   2.910   6.835
 2147SOL    HW218501   1.486   3.000   6.740
 2148SOL     OW18502   1.006   3.214   7.016
 2148SOL    HW118503   0.921   3.266   7.002
 2148SOL    HW218504   1.001   3.128   6.965
 2149SOL     OW18505   0.751   2.465   6.111
 2149SOL    HW118506   0.743   2.543   6.049
 2149SOL    HW218507   0.714   2.383   6.066
 2150SOL     OW18508   1.296   2.369   7.282
 2150SOL    HW118509   1.388   2.350   7.318
 2150SOL    HW218510   1.240   2.286   7.288
 2151SOL     OW18511   0.427   3.247   5.635
 2151SOL    HW118512   0.468   3.240   5.544
 2151SOL    HW218513   0.471   3.321   5.686
 2152SOL     OW18514   0.692   2.206   6.603
 2152SOL    HW118515   0.757   2.278   6.580
 2152SOL    HW218516   0.727   2.118   6.574
 2153SOL     OW18517   0.239   2.717   6.036
 2153SOL    HW118518   0.281   2.692   6.123
 2153SOL    HW218519   0.141   2.733   6.050
 2154SOL     OW18520   0.895   3.677   6.118
 2154SOL    HW118521   0.929   3.584   6.132
 2154SOL    HW218522   0.831   3.678   6.041
 2155SOL     OW18523   1.695   2.154   6.695
 2155SOL    HW118524   1.728   2.248   6.694
 2155SOL    HW218525   1.596   2.153   6.705
 2156SOL     OW18526   1.035   2.170   5.965
 2156SOL    HW118527   1.017   2.228   6.045
 2156SOL    HW218528   1.063   2.079   5.995
 2157SOL     OW18529   0.534   2.529   5.528
 2157SOL    HW118530   0.514   2.627   5.521
 2157SOL    HW218531   0.613   2.507   5.471
 2158SOL     OW18532   1.011   2.494   7.105
 2158SOL    HW118533   1.045   2.410   7.148
 2158SOL    HW218534   1.083   2.535   7.049
 2159SOL     OW18535   1.738   3.285   6.384
 2159SOL    HW118536   1.709   3.320   6.473
 2159SOL    HW218537   1.710   3.348   6.312
 2160SOL     OW18538   1.159   2.259   5.735
 2160SOL    HW118539   1.218   2.336   5.761
 2160SOL    HW218540   1.116   2.221   5.816
 2161SOL     OW18541   0.502   2.388   6.696
 2161SOL    HW118542   0.560   2.313   6.666
 2161SOL    HW218543   0.422   2.352   6.744
 2162SOL     OW18544   1.443   2.644   6.849
 2162SOL    HW118545   1.464   2.734   6.812
 2162SOL    HW218546   1.527   2.597   6.875
 2163SOL     OW18547   0.387   2.173   5.974
 2163SOL    HW118548   0.324   2.199   6.047
 2163SOL    HW218549   0.340   2.180   5.886
 2164SOL     OW18550   1.559   3.602   6.863
 2164SOL    HW118551   1.483   3.602   6.799
 2164SOL    HW218552   1.645   3.605   6.813
 2165SOL     OW18553   1.776   2.412   6.700
 2165SOL    HW118554   1.864   2.458   6.690
 2165SOL    HW218555   1.733   2.441   6.786
 2166SOL     OW18556   1.815   3.605   6.730
 2166SOL    HW118557   1.851   3.638   6.817
 2166SOL    HW218558   1.890   3.590   6.666
 2167SOL     OW18559   0.975   2.322   6.188
 2167SOL    HW118560   1.037   2.373   6.247
 2167SOL    HW218561   0.900   2.381   6.158
 2168SOL     OW18562   1.063   2.194   7.296
 2168SOL    HW118563   1.105   2.166   7.382
 2168SOL    HW218564   0.964   2.199   7.308
 2169SOL     OW18565   1.819   2.446   5.901
 2169SOL    HW118566   1.762   2.365   5.914
 2169SOL    HW218567   1.867   2.467   5.986
 2170SOL     OW18568   1.044   3.673   5.641
 2170SOL    HW118569   1.058   3.589   5.589
 2170SOL    HW218570   1.132   3.706   5.675
 2171SOL     OW18571   0.774   1.872   7.270
 2171SOL    HW118572   0.803   1.781   7.242
 2171SOL    HW218573   0.783   1.880   7.370
 2172SOL     OW18574   1.651   2.504   6.474
 2172SOL    HW118575   1.620   2.597   6.492
 2172SOL    HW218576   1.695   2.467   6.556
 2173SOL     OW18577   1.113   3.172   7.278
 2173SOL    HW118578   1.151   3.080   7.269
 2173SOL    HW218579   1.065   3.197   7.194
 2174SOL     OW18580   0.847   2.967   7.329
 2174SOL    HW118581   0.883   3.037   7.391
 2174SOL    HW218582   0.814   2.889   7.382
 2175SOL     OW18583   1.770   2.078   7.371
 2175SOL    HW118584   1.716   2.121   7.444
 2175SOL    HW218585   1.816   1.997   7.408
 2176SOL     OW18586   9.933   2.521   6.225
 2176SOL    HW118587   0.008   2.480   6.277
 2176SOL    HW218588   9.962   2.609   6.188
 2177SOL     OW18589   1.024   2.756   6.443
 2177SOL    HW118590   1.063   2.785   6.355
 2177SOL    HW218591   0.952   2.689   6.426
 2178SOL     OW18592   0.212   3.369   5.855
 2178SOL    HW118593   0.228   3.293   5.791
 2178SOL    HW218594   0.254   3.452   5.818
 2179SOL     OW18595   1.486   3.192   6.788
 2179SOL    HW118596   1.455   3.243   6.707
 2179SOL    HW218597   1.416   3.197   6.859
 2180SOL     OW18598   0.065   3.444   6.073
 2180SOL    HW118599   0.049   3.542   6.064
 2180SOL    HW218600   0.124   3.412   6.000
 2181SOL     OW18601   1.751   3.229   6.841
 2181SOL    HW118602   1.772   3.263   6.933
 2181SOL    HW218603   1.652   3.213   6.833
 2182SOL     OW18604   0.515   2.804   5.521
 2182SOL    HW118605   0.496   2.858   5.439
 2182SOL    HW218606   0.494   2.857   5.603
 2183SOL     OW18607   0.980   2.983   6.869
 2183SOL    HW118608   1.037   2.906   6.841
 2183SOL    HW218609   0.917   3.005   6.795
 2184SOL     OW18610   0.111   2.780   5.783
 2184SOL    HW118611   0.171   2.779   5.863
 2184SOL    HW218612   0.064   2.692   5.775
 2185SOL     OW18613   1.744   2.704   5.963
 2185SOL    HW118614   1.751   2.610   5.928
 2185SOL    HW218615   1.712   2.764   5.890
 2186SOL     OW18616   0.903   3.768   6.627
 2186SOL    HW118617   0.957   3.686   6.645
 2186SOL    HW218618   0.860   3.800   6.712
 2187SOL     OW18619   0.779   2.764   5.596
 2187SOL    HW118620   0.804   2.676   5.636
 2187SOL    HW218621   0.683   2.762   5.568
 2188SOL     OW18622   0.323   2.273   7.107
 2188SOL    HW118623   0.334   2.214   7.028
 2188SOL    HW218624   0.398   2.257   7.172
 2189SOL     OW18625   0.310   2.092   6.907
 2189SOL    HW118626   0.341   1.999   6.885
 2189SOL    HW218627   0.216   2.103   6.875
 2190SOL     OW18628   1.050   2.740   6.734
 2190SOL    HW118629   1.045   2.732   6.635
 2190SOL    HW218630   0.969   2.699   6.775
 2191SOL     OW18631   1.711   2.226   6.025
 2191SOL    HW118632   1.790   2.171   5.999
 2191SOL    HW218633   1.720   2.254   6.121
 2192SOL     OW18634   0.820   2.225   5.799
 2192SOL    HW118635   0.744   2.229   5.863
 2192SOL    HW218636   0.906   2.210   5.849
 2193SOL     OW18637   1.654   3.496   6.218
 2193SOL    HW118638   1.638   3.592   6.241
 2193SOL    HW218639   1.717   3.490   6.141
 2194SOL     OW18640   1.089   2.824   6.189
 2194SOL    HW118641   1.171   2.844   6.135
 2194SOL    HW218642   1.008   2.844   6.134
 2195SOL     OW18643   0.847   3.474   7.184
 2195SOL    HW118644   0.803   3.408   7.122
 2195SOL    HW218645   0.846   3.437   7.277
 2196SOL     OW18646   0.853   2.876   6.047
 2196SOL    HW118647   0.806   2.794   6.013
 2196SOL    HW218648   0.811   2.907   6.132
 2197SOL     OW18649   1.280   3.225   6.969
 2197SOL    HW118650   1.323   3.309   7.001
 2197SOL    HW218651   1.181   3.230   6.985
 2198SOL     OW18652   0.053   2.264   5.915
 2198SOL    HW118653   0.117   2.228   5.846
 2198SOL    HW218654   0.099   2.268   6.004
 2199SOL     OW18655   0.862   2.647   6.918
 2199SOL    HW118656   0.838   2.725   6.976
 2199SOL    HW218657   0.917   2.582   6.970
 2200SOL     OW18658   0.202   3.729   6.973
 2200SOL    HW118659   0.103   3.744   6.967
 2200SOL    HW218660   0.227   3.710   7.067
 2201SOL     OW18661   0.725   2.660   5.924
 2201SOL    HW118662   0.631   2.681   5.897
 2201SOL    HW218663   0.773   2.618   5.848
 2202SOL     OW18664   0.383   2.459   6.453
 2202SOL    HW118665   0.449   2.417   6.391
 2202SOL    HW218666   0.415   2.449   6.547
 2203SOL     OW18667   0.328   3.605   5.765
 2203SOL    HW118668   0.408   3.651   5.727
 2203SOL    HW218669   0.310   3.638   5.857
 2204SOL     OW18670   1.334   3.581   6.692
 2204SOL    HW118671   1.358   3.635   6.611
 2204SOL    HW218672   1.341   3.484   6.672
 2205SOL     OW18673   9.937   2.976   6.496
 2205SOL    HW118674   9.908   3.068   6.522
 2205SOL    HW218675   9.898   2.910   6.560
 2206SOL     OW18676   0.023   3.052   6.045
 2206SOL    HW118677   0.062   3.136   6.083
 2206SOL    HW218678   0.023   3.057   5.945
 2207SOL     OW18679   1.642   2.133   7.125
 2207SOL    HW118680   1.582   2.211   7.112
 2207SOL    HW218681   1.676   2.132   7.219
 2208SOL     OW18682   1.587   1.862   7.133
 2208SOL    HW118683   1.582   1.823   7.041
 2208SOL    HW218684   1.601   1.961   7.127
 2209SOL     OW18685   0.768   2.149   6.282
 2209SOL    HW118686   0.778   2.080   6.353
 2209SOL    HW218687   0.856   2.194   6.266
 2210SOL     OW18688   1.355   2.446   6.682
 2210SOL    HW118689   1.401   2.469   6.596
 2210SOL    HW218690   1.377   2.515   6.751
 2211SOL     OW18691   0.408   2.927   7.183
 2211SOL    HW118692   0.468   2.920   7.103
 2211SOL    HW218693   0.371   3.020   7.189
 2212SOL     OW18694   1.765   2.478   7.279
 2212SOL    HW118695   1.759   2.551   7.211
 2212SOL    HW218696   1.861   2.464   7.303
 2213SOL     OW18697   1.428   2.184   6.728
 2213SOL    HW118698   1.401   2.278   6.707
 2213SOL    HW218699   1.385   2.154   6.813
 2214SOL     OW18700   1.550   2.328   7.363
 2214SOL    HW118701   1.627   2.383   7.330
 2214SOL    HW218702   1.577   2.280   7.447
 2215SOL     OW18703   1.765   2.679   7.088
 2215SOL    HW118704   1.695   2.749   7.077
 2215SOL    HW218705   1.855   2.721   7.089
 2216SOL     OW18706   0.752   3.334   6.961
 2216SOL    HW118707   0.697   3.415   6.942
 2216SOL    HW218708   0.711   3.255   6.914
 2217SOL     OW18709   0.165   2.076   7.213
 2217SOL    HW118710   0.169   1.997   7.152
 2217SOL    HW218711   0.218   2.151   7.174
 2218SOL     OW18712   9.952   3.738   7.258
 2218SOL    HW118713   9.991   3.766   7.345
 2218SOL    HW218714   9.927   3.641   7.262
 2219SOL     OW18715   0.182   2.216   6.156
 2219SOL    HW118716   0.162   2.272   6.236
 2219SOL    HW218717   0.132   2.129   6.163
 2220SOL     OW18718   1.410   3.449   7.048
 2220SOL    HW118719   1.349   3.511   7.097
 2220SOL    HW218720   1.467   3.502   6.984
 2221SOL     OW18721   0.320   2.533   5.703
 2221SOL    HW118722   0.398   2.517   5.643
 2221SOL    HW218723   0.348   2.595   5.777
 2222SOL     OW18724   1.826   2.084   6.928
 2222SOL    HW118725   1.759   2.104   7.000
 2222SOL    HW218726   1.784   2.100   6.838
 2223SOL     OW18727   0.330   3.649   6.287
 2223SOL    HW118728   0.263   3.579   6.311
 2223SOL    HW218729   0.331   3.662   6.187
 2224SOL     OW18730   1.212   3.411   7.384
 2224SOL    HW118731   1.181   3.322   7.350
 2224SOL    HW218732   1.223   3.474   7.307
 2225SOL     OW18733   0.321   2.678   6.300
 2225SOL    HW118734   0.391   2.746   6.321
 2225SOL    HW218735   0.339   2.595   6.352
 2226SOL     OW18736   0.234   2.152   5.740
 2226SOL    HW118737   0.181   2.068   5.726
 2226SOL    HW218738   0.297   2.165   5.664
 2227SOL     OW18739   0.128   2.378   6.376
 2227SOL    HW118740   0.071   2.370   6.458
 2227SOL    HW218741   0.220   2.407   6.402
 2228SOL     OW18742   0.496   2.979   5.731
 2228SOL    HW118743   0.591   2.986   5.761
 2228SOL    HW218744   0.460   3.069   5.708
 2229SOL     OW18745   1.124   2.574   5.602
 2229SOL    HW118746   1.084   2.641   5.540
 2229SOL    HW218747   1.207   2.536   5.561
 2230SOL     OW18748   0.870   2.529   5.720
 2230SOL    HW118749   0.965   2.539   5.690
 2230SOL    HW218750   0.846   2.432   5.722
 2231SOL     OW18751   1.458   2.335   7.052
 2231SOL    HW118752   1.404   2.378   7.124
 2231SOL    HW218753   1.400   2.269   7.003
 2232SOL     OW18754   0.104   1.904   5.747
 2232SOL    HW118755   0.027   1.860   5.793
 2232SOL    HW218756   0.188   1.889   5.799
 2233SOL     OW18757   1.681   2.870   5.756
 2233SOL    HW118758   1.776   2.903   5.752
 2233SOL    HW218759   1.620   2.937   5.715
 2234SOL     OW18760   0.694   2.587   6.707
 2234SOL    HW118761   0.733   2.607   6.797
 2234SOL    HW218762   0.616   2.526   6.717
 2235SOL     OW18763   0.831   2.874   7.073
 2235SOL    HW118764   0.895   2.922   7.013
 2235SOL    HW218765   0.838   2.910   7.166
 2236SOL     OW18766   1.185   2.907   7.228
 2236SOL    HW118767   1.107   2.846   7.244
 2236SOL    HW218768   1.270   2.859   7.250
 2237SOL     OW18769   1.229   3.599   7.184
 2237SOL    HW118770   1.148   3.615   7.127
 2237SOL    HW218771   1.256   3.684   7.228
 2238SOL     OW18772   0.399   3.718   6.791
 2238SOL    HW118773   0.362   3.682   6.705
 2238SOL    HW218774   0.327   3.719   6.861
 2239SOL     OW18775   0.721   2.781   6.513
 2239SOL    HW118776   0.754   2.719   6.441
 2239SOL    HW218777   0.695   2.728   6.593
 2240SOL     OW18778   9.888   2.750   6.662
 2240SOL    HW118779   9.964   2.735   6.598
 2240SOL    HW218780   9.844   2.662   6.681
 2241SOL     OW18781   0.297   1.906   5.947
 2241SOL    HW118782   0.353   1.988   5.963
 2241SOL    HW218783   0.212   1.914   5.999
 2242SOL     OW18784   0.727   2.491   7.163
 2242SOL    HW118785   0.674   2.544   7.097
 2242SOL    HW218786   0.824   2.494   7.139
 2243SOL     OW18787   0.028   3.045   5.766
 2243SOL    HW118788   0.063   2.951   5.765
 2243SOL    HW218789   0.074   3.098   5.694
 2244SOL     OW18790   1.795   2.108   6.445
 2244SOL    HW118791   1.750   2.112   6.535
 2244SOL    HW218792   1.893   2.093   6.457
 2245SOL     OW18793   0.826   3.009   6.634
 2245SOL    HW118794   0.785   2.927   6.594
 2245SOL    HW218795   0.919   3.020   6.600
 2246SOL     OW18796   1.565   3.317   7.231
 2246SOL    HW118797   1.525   3.234   7.271
 2246SOL    HW218798   1.500   3.357   7.166
 2247SOL     OW18799   0.295   2.535   7.031
 2247SOL    HW118800   0.303   2.441   7.063
 2247SOL    HW218801   0.254   2.591   7.104
 2248SOL     OW18802   0.778   3.354   5.506
 2248SOL    HW118803   0.731   3.395   5.584
 2248SOL    HW218804   0.866   3.317   5.537
 2249SOL     OW18805   0.760   2.958   6.293
 2249SOL    HW118806   0.801   3.043   6.327
 2249SOL    HW218807   0.735   2.900   6.371
 2250SOL     OW18808   0.080   2.735   6.459
 2250SOL    HW118809   0.152   2.712   6.394
 2250SOL    HW218810   0.045   2.827   6.440
 2251SOL     OW18811   1.005   3.624   7.016
 2251SOL    HW118812   0.957   3.562   7.077
 2251SOL    HW218813   0.941   3.695   6.984
 2252SOL     OW18814   1.090   2.996   6.559
 2252SOL    HW118815   1.175   2.986   6.610
 2252SOL    HW218816   1.070   2.911   6.510
 2253SOL     OW18817   0.511   2.216   7.300
 2253SOL    HW118818   0.599   2.188   7.261
 2253SOL    HW218819   0.517   2.310   7.333
 2254SOL     OW18820   0.458   2.732   5.866
 2254SOL    HW118821   0.462   2.822   5.824
 2254SOL    HW218822   0.386   2.731   5.935
 2255SOL     OW18823   1.578   2.761   6.553
 2255SOL    HW118824   1.653   2.821   6.526
 2255SOL    HW218825   1.518   2.808   6.617
 2256SOL     OW18826   1.296   2.123   6.961
 2256SOL    HW118827   1.300   2.090   7.055
 2256SOL    HW218828   1.242   2.058   6.906
 2257SOL     OW18829   0.038   1.993   6.040
 2257SOL    HW118830   9.984   1.916   6.008
 2257SOL    HW218831   0.010   2.076   5.993
 2258SOL     OW18832   1.266   2.024   7.215
 2258SOL    HW118833   1.322   2.020   7.297
 2258SOL    HW218834   1.182   2.076   7.234
 2259SOL     OW18835   0.448   3.479   7.129
 2259SOL    HW118836   0.392   3.555   7.162
 2259SOL    HW218837   0.508   3.512   7.055
 2260SOL     OW18838   1.801   3.315   7.097
 2260SOL    HW118839   1.849   3.400   7.117
 2260SOL    HW218840   1.715   3.313   7.147
 2261SOL     OW18841   1.092   2.357   6.699
 2261SOL    HW118842   1.182   2.400   6.691
 2261SOL    HW218843   1.100   2.272   6.752
 2262SOL     OW18844   1.049   3.557   6.717
 2262SOL    HW118845   1.030   3.524   6.809
 2262SOL    HW218846   1.147   3.555   6.700
 2263SOL     OW18847   0.285   3.687   7.231
 2263SOL    HW118848   0.323   3.770   7.272
 2263SOL    HW218849   0.240   3.632   7.302
 2264SOL     OW18850   1.767   2.331   6.293
 2264SOL    HW118851   1.715   2.399   6.345
 2264SOL    HW218852   1.762   2.243   6.339
 2265SOL     OW18853   0.760   2.968   5.795
 2265SOL    HW118854   0.789   2.896   5.732
 2265SOL    HW218855   0.804   2.955   5.884
 2266SOL     OW18856   0.793   1.987   5.649
 2266SOL    HW118857   0.802   1.916   5.720
 2266SOL    HW218858   0.811   2.077   5.689
 2267SOL     OW18859   0.579   2.353   6.305
 2267SOL    HW118860   0.630   2.269   6.318
 2267SOL    HW218861   0.623   2.408   6.234
 2268SOL     OW18862   0.582   2.915   6.972
 2268SOL    HW118863   0.671   2.898   7.016
 2268SOL    HW218864   0.591   2.992   6.909
 2269SOL     OW18865   1.754   2.951   6.854
 2269SOL    HW118866   1.767   3.050   6.847
 2269SOL    HW218867   1.790   2.907   6.772
 2270SOL     OW18868   0.163   3.203   5.570
 2270SOL    HW118869   0.147   3.201   5.471
 2270SOL    HW218870   0.261   3.213   5.588
 2271SOL     OW18871   0.618   3.473   5.704
 2271SOL    HW118872   0.582   3.557   5.664
 2271SOL    HW218873   0.645   3.490   5.799
 2272SOL     OW18874   1.330   2.960   6.997
 2272SOL    HW118875   1.271   2.924   7.069
 2272SOL    HW218876   1.314   3.058   6.987
 2273SOL     OW18877   0.608   3.578   6.917
 2273SOL    HW118878   0.681   3.645   6.925
 2273SOL    HW218879   0.531   3.617   6.866
 2274SOL     OW18880   1.680   3.392   6.626
 2274SOL    HW118881   1.718   3.481   6.650
 2274SOL    HW218882   1.697   3.326   6.699
 2275SOL     OW18883   9.981   2.782   6.097
 2275SOL    HW118884   0.004   2.879   6.100
 2275SOL    HW218885   9.891   2.771   6.054
 2276SOL     OW18886   0.556   2.633   6.998
 2276SOL    HW118887   0.462   2.600   7.002
 2276SOL    HW218888   0.556   2.732   6.980
 2277SOL     OW18889   0.862   2.418   6.566
 2277SOL    HW118890   0.949   2.398   6.613
 2277SOL    HW218891   0.808   2.480   6.623
 2278SOL     OW18892   0.642   3.130   6.799
 2278SOL    HW118893   0.567   3.169   6.745
 2278SOL    HW218894   0.710   3.091   6.737
 2279SOL     OW18895   0.215   2.470   6.772
 2279SOL    HW118896   0.240   2.496   6.865
 2279SOL    HW218897   0.233   2.546   6.710
 2280SOL     OW18898   1.663   3.558   7.330
 2280SOL    HW118899   1.628   3.466   7.314
 2280SOL    HW218900   1.633   3.619   7.257
 2281SOL     OW18901   0.653   2.226   6.022
 2281SOL    HW118902   0.556   2.208   6.002
 2281SOL    HW218903   0.679   2.177   6.105
 2282SOL     OW18904   1.185   2.620   6.944
 2282SOL    HW118905   1.284   2.625   6.935
 2282SOL    HW218906   1.142   2.664   6.865
 2283SOL     OW18907   0.825   2.584   6.354
 2283SOL    HW118908   0.832   2.510   6.421
 2283SOL    HW218909   0.794   2.547   6.266
 2284SOL     OW18910   1.336   3.325   6.598
 2284SOL    HW118911   1.255   3.271   6.576
 2284SOL    HW218912   1.377   3.359   6.513
 2285SOL     OW18913   1.108   3.312   8.171
 2285SOL    HW118914   1.203   3.341   8.168
 2285SOL    HW218915   1.066   3.324   8.081
 2286SOL     OW18916   1.616   3.124   7.953
 2286SOL    HW118917   1.626   3.192   8.025
 2286SOL    HW218918   1.706   3.087   7.929
 2287SOL     OW18919   1.612   2.464   8.807
 2287SOL    HW118920   1.538   2.416   8.855
 2287SOL    HW218921   1.684   2.488   8.873
 2288SOL     OW18922   0.346   2.028   7.413
 2288SOL    HW118923   0.264   2.035   7.357
 2288SOL    HW218924   0.414   2.094   7.381
 2289SOL     OW18925   1.368   3.401   8.199
 2289SOL    HW118926   1.378   3.499   8.217
 2289SOL    HW218927   1.457   3.361   8.179
 2290SOL     OW18928   1.193   1.913   8.699
 2290SOL    HW118929   1.118   1.855   8.731
 2290SOL    HW218930   1.251   1.862   8.636
 2291SOL     OW18931   1.003   2.699   9.122
 2291SOL    HW118932   0.989   2.626   9.055
 2291SOL    HW218933   0.916   2.722   9.166
 2292SOL     OW18934   0.611   3.361   7.818
 2292SOL    HW118935   0.547   3.381   7.892
 2292SOL    HW218936   0.672   3.287   7.845
 2293SOL     OW18937   0.537   1.856   7.528
 2293SOL    HW118938   0.628   1.897   7.530
 2293SOL    HW218939   0.471   1.922   7.494
 2294SOL     OW18940   1.614   2.882   8.921
 2294SOL    HW118941   1.520   2.908   8.901
 2294SOL    HW218942   1.675   2.924   8.854
 2295SOL     OW18943   1.440   2.900   8.613
 2295SOL    HW118944   1.393   2.899   8.701
 2295SOL    HW218945   1.484   2.989   8.600
 2296SOL     OW18946   1.008   3.199   8.844
 2296SOL    HW118947   0.920   3.247   8.837
 2296SOL    HW218948   1.003   3.115   8.790
 2297SOL     OW18949   0.759   2.467   7.925
 2297SOL    HW118950   0.766   2.545   7.864
 2297SOL    HW218951   0.729   2.387   7.873
 2298SOL     OW18952   1.318   2.367   9.207
 2298SOL    HW118953   1.418   2.364   9.206
 2298SOL    HW218954   1.283   2.304   9.276
 2299SOL     OW18955   0.590   2.159   8.372
 2299SOL    HW118956   0.654   2.235   8.371
 2299SOL    HW218957   0.635   2.077   8.336
 2300SOL     OW18958   1.787   3.456   7.796
 2300SOL    HW118959   1.879   3.421   7.782
 2300SOL    HW218960   1.760   3.510   7.716
 2301SOL     OW18961   1.647   2.192   8.485
 2301SOL    HW118962   1.685   2.281   8.510
 2301SOL    HW218963   1.548   2.195   8.494
 2302SOL     OW18964   1.089   2.204   7.725
 2302SOL    HW118965   1.137   2.292   7.733
 2302SOL    HW218966   1.096   2.154   7.811
 2303SOL     OW18967   0.251   2.866   9.014
 2303SOL    HW118968   0.325   2.927   9.044
 2303SOL    HW218969   0.194   2.841   9.092
 2304SOL     OW18970   0.532   2.481   7.351
 2304SOL    HW118971   0.505   2.574   7.377
 2304SOL    HW218972   0.607   2.485   7.285
 2305SOL     OW18973   0.756   3.415   8.116
 2305SOL    HW118974   0.737   3.512   8.100
 2305SOL    HW218975   0.825   3.384   8.050
 2306SOL     OW18976   0.968   2.456   8.982
 2306SOL    HW118977   0.995   2.378   9.039
 2306SOL    HW218978   1.045   2.482   8.923
 2307SOL     OW18979   1.629   3.295   8.186
 2307SOL    HW118980   1.640   3.314   8.283
 2307SOL    HW218981   1.683   3.360   8.132
 2308SOL     OW18982   1.216   2.114   7.502
 2308SOL    HW118983   1.296   2.059   7.527
 2308SOL    HW218984   1.169   2.143   7.586
 2309SOL     OW18985   0.418   2.407   8.564
 2309SOL    HW118986   0.394   2.310   8.568
 2309SOL    HW218987   0.335   2.462   8.574
 2310SOL     OW18988   1.414   2.617   8.691
 2310SOL    HW118989   1.439   2.711   8.668
 2310SOL    HW218990   1.492   2.571   8.733
 2311SOL     OW18991   0.400   2.151   7.839
 2311SOL    HW118992   0.354   2.185   7.921
 2311SOL    HW218993   0.339   2.160   7.760
 2312SOL     OW18994   1.550   3.588   8.698
 2312SOL    HW118995   1.474   3.597   8.633
 2312SOL    HW218996   1.636   3.582   8.647
 2313SOL     OW18997   1.743   2.436   8.566
 2313SOL    HW118998   1.836   2.472   8.573
 2313SOL    HW218999   1.695   2.448   8.653
 2314SOL     OW19000   1.809   3.580   8.569
 2314SOL    HW119001   1.838   3.626   8.653
 2314SOL    HW219002   1.889   3.559   8.513
 2315SOL     OW19003   0.984   2.321   8.024
 2315SOL    HW119004   1.038   2.365   8.096
 2315SOL    HW219005   0.917   2.386   7.988
 2316SOL     OW19006   1.261   2.848   7.537
 2316SOL    HW119007   1.281   2.785   7.612
 2316SOL    HW219008   1.205   2.802   7.468
 2317SOL     OW19009   1.019   2.241   9.175
 2317SOL    HW119010   1.085   2.241   9.251
 2317SOL    HW219011   0.929   2.216   9.210
 2318SOL     OW19012   1.753   2.543   7.758
 2318SOL    HW119013   1.704   2.456   7.767
 2318SOL    HW219014   1.816   2.555   7.835
 2319SOL     OW19015   1.063   3.611   7.515
 2319SOL    HW119016   1.096   3.538   7.455
 2319SOL    HW219017   1.063   3.578   7.609
 2320SOL     OW19018   0.813   1.873   9.062
 2320SOL    HW119019   0.833   1.776   9.052
 2320SOL    HW219020   0.834   1.903   9.155
 2321SOL     OW19021   1.706   2.524   8.308
 2321SOL    HW119022   1.669   2.617   8.311
 2321SOL    HW219023   1.712   2.487   8.401
 2322SOL     OW19024   1.110   3.169   9.119
 2322SOL    HW119025   1.150   3.077   9.116
 2322SOL    HW219026   1.063   3.187   9.033
 2323SOL     OW19027   0.812   2.967   9.125
 2323SOL    HW119028   0.791   3.052   9.172
 2323SOL    HW219029   0.797   2.890   9.187
 2324SOL     OW19030   1.402   1.819   8.267
 2324SOL    HW119031   1.356   1.908   8.278
 2324SOL    HW219032   1.490   1.832   8.222
 2325SOL     OW19033   1.783   2.090   9.200
 2325SOL    HW119034   1.708   2.104   9.265
 2325SOL    HW219035   1.845   2.019   9.235
 2326SOL     OW19036   9.970   2.473   8.012
 2326SOL    HW119037   0.037   2.459   8.085
 2326SOL    HW219038   0.018   2.500   7.928
 2327SOL     OW19039   0.398   2.063   8.186
 2327SOL    HW119040   0.462   2.103   8.251
 2327SOL    HW219041   0.434   1.977   8.151
 2328SOL     OW19042   0.370   2.133   8.543
 2328SOL    HW119043   0.313   2.058   8.511
 2328SOL    HW219044   0.453   2.137   8.488
 2329SOL     OW19045   1.066   2.640   8.314
 2329SOL    HW119046   0.973   2.652   8.281
 2329SOL    HW219047   1.103   2.553   8.280
 2330SOL     OW19048   1.486   3.178   8.629
 2330SOL    HW119049   1.447   3.219   8.546
 2330SOL    HW219050   1.420   3.187   8.704
 2331SOL     OW19051   0.218   3.583   8.049
 2331SOL    HW119052   0.134   3.632   8.026
 2331SOL    HW219053   0.269   3.562   7.966
 2332SOL     OW19054   1.751   3.229   8.672
 2332SOL    HW119055   1.770   3.271   8.761
 2332SOL    HW219056   1.653   3.211   8.665
 2333SOL     OW19057   0.511   2.758   7.374
 2333SOL    HW119058   0.471   2.810   7.298
 2333SOL    HW219059   0.520   2.817   7.454
 2334SOL     OW19060   0.981   2.971   8.684
 2334SOL    HW119061   1.029   2.886   8.661
 2334SOL    HW219062   0.918   2.995   8.610
 2335SOL     OW19063   1.590   2.763   7.806
 2335SOL    HW119064   1.650   2.684   7.790
 2335SOL    HW219065   1.610   2.834   7.739
 2336SOL     OW19066   0.816   3.675   8.364
 2336SOL    HW119067   0.866   3.589   8.374
 2336SOL    HW219068   0.729   3.668   8.413
 2337SOL     OW19069   0.776   2.712   7.425
 2337SOL    HW119070   0.793   2.621   7.462
 2337SOL    HW219071   0.680   2.720   7.397
 2338SOL     OW19072   1.389   2.258   7.833
 2338SOL    HW119073   1.339   2.325   7.778
 2338SOL    HW219074   1.487   2.279   7.831
 2339SOL     OW19075   0.322   2.477   8.864
 2339SOL    HW119076   0.300   2.395   8.812
 2339SOL    HW219077   0.290   2.466   8.959
 2340SOL     OW19078   0.222   2.235   8.756
 2340SOL    HW119079   0.279   2.184   8.692
 2340SOL    HW219080   0.136   2.260   8.712
 2341SOL     OW19081   1.040   2.708   8.598
 2341SOL    HW119082   1.049   2.686   8.500
 2341SOL    HW219083   0.957   2.665   8.634
 2342SOL     OW19084   1.662   2.291   7.845
 2342SOL    HW119085   1.755   2.256   7.829
 2342SOL    HW219086   1.650   2.308   7.943
 2343SOL     OW19087   0.925   3.422   8.339
 2343SOL    HW119088   1.003   3.386   8.287
 2343SOL    HW219089   0.841   3.404   8.289
 2344SOL     OW19090   0.843   2.207   7.612
 2344SOL    HW119091   0.773   2.209   7.683
 2344SOL    HW219092   0.934   2.205   7.654
 2345SOL     OW19093   0.978   3.149   7.521
 2345SOL    HW119094   1.035   3.139   7.602
 2345SOL    HW219095   1.036   3.163   7.441
 2346SOL     OW19096   1.768   3.488   8.062
 2346SOL    HW119097   1.725   3.575   8.087
 2346SOL    HW219098   1.770   3.479   7.963
 2347SOL     OW19099   1.186   2.748   7.959
 2347SOL    HW119100   1.216   2.776   8.050
 2347SOL    HW219101   1.100   2.794   7.937
 2348SOL     OW19102   0.865   3.463   9.025
 2348SOL    HW119103   0.820   3.406   8.956
 2348SOL    HW219104   0.862   3.417   9.114
 2349SOL     OW19105   1.272   2.803   8.213
 2349SOL    HW119106   1.202   2.743   8.251
 2349SOL    HW219107   1.282   2.884   8.272
 2350SOL     OW19108   0.945   2.857   7.872
 2350SOL    HW119109   0.896   2.777   7.839
 2350SOL    HW219110   0.907   2.886   7.960
 2351SOL     OW19111   1.285   3.213   8.815
 2351SOL    HW119112   1.323   3.299   8.848
 2351SOL    HW219113   1.185   3.215   8.826
 2352SOL     OW19114   0.081   2.096   7.865
 2352SOL    HW119115   0.118   2.127   7.778
 2352SOL    HW219116   0.120   2.152   7.939
 2353SOL     OW19117   1.714   3.632   7.593
 2353SOL    HW119118   1.796   3.688   7.585
 2353SOL    HW219119   1.686   3.600   7.503
 2354SOL     OW19120   0.839   2.601   8.762
 2354SOL    HW119121   0.822   2.688   8.807
 2354SOL    HW219122   0.876   2.535   8.828
 2355SOL     OW19123   0.151   3.741   8.793
 2355SOL    HW119124   0.088   3.715   8.720
 2355SOL    HW219125   0.121   3.700   8.880
 2356SOL     OW19126   0.788   2.668   7.740
 2356SOL    HW119127   0.724   2.728   7.692
 2356SOL    HW219128   0.829   2.604   7.675
 2357SOL     OW19129   0.404   2.437   8.290
 2357SOL    HW119130   0.470   2.394   8.227
 2357SOL    HW219131   0.429   2.415   8.384
 2358SOL     OW19132   0.258   3.608   7.515
 2358SOL    HW119133   0.351   3.615   7.478
 2358SOL    HW219134   0.262   3.614   7.615
 2359SOL     OW19135   1.333   3.603   8.525
 2359SOL    HW119136   1.362   3.625   8.431
 2359SOL    HW219137   1.257   3.538   8.523
 2360SOL     OW19138   9.984   3.122   8.293
 2360SOL    HW119139   9.896   3.123   8.245
 2360SOL    HW219140   9.986   3.045   8.357
 2361SOL     OW19141   0.730   1.911   7.810
 2361SOL    HW119142   0.754   1.907   7.713
 2361SOL    HW219143   0.696   2.002   7.832
 2362SOL     OW19144   1.608   2.128   8.969
 2362SOL    HW119145   1.552   2.210   8.979
 2362SOL    HW219146   1.672   2.121   9.045
 2363SOL     OW19147   1.301   2.075   8.304
 2363SOL    HW119148   1.322   2.138   8.230
 2363SOL    HW219149   1.328   2.115   8.391
 2364SOL     OW19150   1.434   1.966   7.587
 2364SOL    HW119151   1.492   1.886   7.569
 2364SOL    HW219152   1.392   1.957   7.677
 2365SOL     OW19153   1.591   1.851   8.955
 2365SOL    HW119154   1.587   1.820   8.860
 2365SOL    HW219155   1.598   1.951   8.956
 2366SOL     OW19156   0.763   2.146   8.067
 2366SOL    HW119157   0.750   2.068   8.128
 2366SOL    HW219158   0.856   2.181   8.078
 2367SOL     OW19159   1.271   2.465   8.515
 2367SOL    HW119160   1.256   2.524   8.436
 2367SOL    HW219161   1.318   2.518   8.587
 2368SOL     OW19162   1.602   1.888   7.853
 2368SOL    HW119163   1.620   1.839   7.768
 2368SOL    HW219164   1.507   1.919   7.854
 2369SOL     OW19165   0.585   3.253   9.167
 2369SOL    HW119166   0.544   3.325   9.111
 2369SOL    HW219167   0.675   3.282   9.199
 2370SOL     OW19168   0.479   3.005   9.082
 2370SOL    HW119169   0.514   2.980   8.991
 2370SOL    HW219170   0.515   3.095   9.107
 2371SOL     OW19171   0.136   3.273   8.475
 2371SOL    HW119172   0.102   3.230   8.392
 2371SOL    HW219173   0.073   3.254   8.550
 2372SOL     OW19174   1.149   2.396   8.230
 2372SOL    HW119175   1.231   2.354   8.192
 2372SOL    HW219176   1.117   2.342   8.308
 2373SOL     OW19177   1.789   2.453   9.055
 2373SOL    HW119178   1.813   2.539   9.010
 2373SOL    HW219179   1.872   2.411   9.092
 2374SOL     OW19180   1.377   2.213   8.531
 2374SOL    HW119181   1.343   2.307   8.526
 2374SOL    HW219182   1.367   2.178   8.624
 2375SOL     OW19183   1.585   2.345   9.201
 2375SOL    HW119184   1.661   2.384   9.148
 2375SOL    HW219185   1.621   2.278   9.266
 2376SOL     OW19186   1.335   2.686   7.750
 2376SOL    HW119187   1.277   2.708   7.828
 2376SOL    HW219188   1.429   2.714   7.770
 2377SOL     OW19189   1.554   2.815   8.080
 2377SOL    HW119190   1.557   2.804   7.980
 2377SOL    HW219191   1.461   2.798   8.113
 2378SOL     OW19192   1.811   2.677   8.898
 2378SOL    HW119193   1.733   2.738   8.891
 2378SOL    HW219194   1.895   2.730   8.904
 2379SOL     OW19195   1.617   2.174   7.582
 2379SOL    HW119196   1.632   2.211   7.673
 2379SOL    HW219197   1.548   2.102   7.585
 2380SOL     OW19198   0.750   3.327   8.812
 2380SOL    HW119199   0.692   3.407   8.799
 2380SOL    HW219200   0.712   3.249   8.763
 2381SOL     OW19201   0.205   2.157   9.027
 2381SOL    HW119202   0.222   2.181   8.931
 2381SOL    HW219203   0.116   2.111   9.034
 2382SOL     OW19204   0.068   3.645   9.050
 2382SOL    HW119205   0.160   3.645   9.090
 2382SOL    HW219206   0.022   3.559   9.071
 2383SOL     OW19207   0.231   2.228   8.053
 2383SOL    HW119208   0.191   2.299   8.112
 2383SOL    HW219209   0.286   2.166   8.109
 2384SOL     OW19210   1.408   3.442   8.891
 2384SOL    HW119211   1.344   3.505   8.935
 2384SOL    HW219212   1.462   3.491   8.823
 2385SOL     OW19213   1.755   2.106   8.731
 2385SOL    HW119214   1.693   2.121   8.807
 2385SOL    HW219215   1.708   2.125   8.645
 2386SOL     OW19216   0.429   3.637   8.214
 2386SOL    HW119217   0.348   3.616   8.159
 2386SOL    HW219218   0.511   3.632   8.158
 2387SOL     OW19219   0.373   3.180   8.606
 2387SOL    HW119220   0.369   3.214   8.700
 2387SOL    HW219221   0.299   3.220   8.552
 2388SOL     OW19222   1.174   3.430   9.219
 2388SOL    HW119223   1.151   3.337   9.191
 2388SOL    HW219224   1.190   3.486   9.137
 2389SOL     OW19225   0.770   3.147   7.903
 2389SOL    HW119226   0.774   3.093   7.819
 2389SOL    HW219227   0.783   3.088   7.982
 2390SOL     OW19228   0.439   2.704   8.251
 2390SOL    HW119229   0.467   2.715   8.156
 2390SOL    HW219230   0.429   2.607   8.273
 2391SOL     OW19231   0.220   2.161   7.629
 2391SOL    HW119232   0.264   2.104   7.560
 2391SOL    HW219233   0.180   2.241   7.586
 2392SOL     OW19234   0.141   2.443   8.229
 2392SOL    HW119235   0.111   2.531   8.266
 2392SOL    HW219236   0.238   2.430   8.251
 2393SOL     OW19237   0.563   2.937   7.572
 2393SOL    HW119238   0.654   2.957   7.608
 2393SOL    HW219239   0.507   3.020   7.572
 2394SOL     OW19240   1.133   2.509   7.447
 2394SOL    HW119241   1.097   2.589   7.398
 2394SOL    HW219242   1.198   2.462   7.388
 2395SOL     OW19243   0.877   2.483   7.555
 2395SOL    HW119244   0.971   2.488   7.521
 2395SOL    HW219245   0.850   2.387   7.563
 2396SOL     OW19246   1.343   1.991   7.844
 2396SOL    HW119247   1.256   1.977   7.893
 2396SOL    HW219248   1.364   2.089   7.840
 2397SOL     OW19249   1.411   2.337   8.938
 2397SOL    HW119250   1.361   2.358   9.021
 2397SOL    HW219251   1.360   2.270   8.884
 2398SOL     OW19252   0.028   1.928   7.551
 2398SOL    HW119253   0.030   1.829   7.563
 2398SOL    HW219254   0.077   1.972   7.626
 2399SOL     OW19255   0.227   2.946   8.626
 2399SOL    HW119256   0.269   2.872   8.679
 2399SOL    HW219257   0.292   3.022   8.618
 2400SOL     OW19258   1.665   2.916   7.592
 2400SOL    HW119259   1.762   2.929   7.610
 2400SOL    HW219260   1.650   2.906   7.494
 2401SOL     OW19261   0.678   2.506   8.556
 2401SOL    HW119262   0.721   2.546   8.637
 2401SOL    HW219263   0.583   2.482   8.576
 2402SOL     OW19264   0.834   2.848   8.882
 2402SOL    HW119265   0.894   2.899   8.820
 2402SOL    HW219266   0.836   2.890   8.972
 2403SOL     OW19267   1.189   2.902   9.086
 2403SOL    HW119268   1.111   2.840   9.092
 2403SOL    HW219269   1.271   2.855   9.121
 2404SOL     OW19270   1.101   2.083   7.974
 2404SOL    HW119271   1.062   2.173   7.990
 2404SOL    HW219272   1.083   2.024   8.053
 2405SOL     OW19273   1.220   3.599   9.008
 2405SOL    HW119274   1.144   3.618   8.946
 2405SOL    HW219275   1.248   3.684   9.053
 2406SOL     OW19276   0.699   1.949   8.240
 2406SOL    HW119277   0.634   1.886   8.197
 2406SOL    HW219278   0.769   1.897   8.289
 2407SOL     OW19279   0.371   3.666   8.649
 2407SOL    HW119280   0.326   3.608   8.582
 2407SOL    HW219281   0.305   3.696   8.717
 2408SOL     OW19282   1.025   3.074   8.283
 2408SOL    HW119283   1.051   3.161   8.242
 2408SOL    HW219284   1.105   3.033   8.329
 2409SOL     OW19285   0.709   2.798   8.299
 2409SOL    HW119286   0.750   2.711   8.270
 2409SOL    HW219287   0.612   2.784   8.318
 2410SOL     OW19288   0.002   2.918   8.479
 2410SOL    HW119289   0.088   2.927   8.530
 2410SOL    HW219290   9.949   2.842   8.517
 2411SOL     OW19291   0.277   1.870   7.823
 2411SOL    HW119292   0.337   1.948   7.840
 2411SOL    HW219293   0.199   1.873   7.886
 2412SOL     OW19294   0.695   2.476   9.070
 2412SOL    HW119295   0.648   2.539   9.008
 2412SOL    HW219296   0.792   2.472   9.046
 2413SOL     OW19297   1.748   2.104   8.244
 2413SOL    HW119298   1.712   2.125   8.335
 2413SOL    HW219299   1.847   2.093   8.249
 2414SOL     OW19300   0.818   3.007   8.461
 2414SOL    HW119301   0.774   2.929   8.416
 2414SOL    HW219302   0.887   3.046   8.401
 2415SOL     OW19303   1.239   2.439   7.691
 2415SOL    HW119304   1.276   2.525   7.725
 2415SOL    HW219305   1.198   2.453   7.600
 2416SOL     OW19306   1.567   3.312   9.073
 2416SOL    HW119307   1.529   3.229   9.113
 2416SOL    HW219308   1.501   3.351   9.008
 2417SOL     OW19309   0.279   2.731   8.785
 2417SOL    HW119310   0.293   2.635   8.812
 2417SOL    HW219311   0.269   2.787   8.867
 2418SOL     OW19312   0.836   3.390   7.443
 2418SOL    HW119313   0.797   3.449   7.515
 2418SOL    HW219314   0.878   3.310   7.485
 2419SOL     OW19315   0.565   3.665   8.453
 2419SOL    HW119316   0.510   3.648   8.370
 2419SOL    HW219317   0.505   3.661   8.533
 2420SOL     OW19318   0.850   2.950   8.108
 2420SOL    HW119319   0.919   2.998   8.162
 2420SOL    HW219320   0.789   2.899   8.168
 2421SOL     OW19321   0.967   3.344   7.937
 2421SOL    HW119322   1.026   3.369   7.861
 2421SOL    HW219323   0.908   3.267   7.909
 2422SOL     OW19324   0.172   2.712   8.334
 2422SOL    HW119325   0.265   2.727   8.302
 2422SOL    HW219326   0.123   2.799   8.339
 2423SOL     OW19327   0.072   2.786   9.210
 2423SOL    HW119328   0.042   2.697   9.176
 2423SOL    HW219329   0.057   2.791   9.308
 2424SOL     OW19330   0.998   3.620   8.837
 2424SOL    HW119331   0.958   3.557   8.903
 2424SOL    HW219332   0.928   3.684   8.805
 2425SOL     OW19333   1.266   3.000   8.406
 2425SOL    HW119334   1.285   3.098   8.414
 2425SOL    HW219335   1.309   2.952   8.483
 2426SOL     OW19336   0.602   2.222   9.108
 2426SOL    HW119337   0.647   2.167   9.038
 2426SOL    HW219338   0.634   2.316   9.102
 2427SOL     OW19339   1.612   2.796   8.409
 2427SOL    HW119340   1.618   2.873   8.345
 2427SOL    HW219341   1.541   2.814   8.477
 2428SOL     OW19342   1.349   2.114   8.787
 2428SOL    HW119343   1.416   2.074   8.849
 2428SOL    HW219344   1.282   2.044   8.761
 2429SOL     OW19345   0.055   1.871   8.018
 2429SOL    HW119346   9.989   1.876   8.093
 2429SOL    HW219347   0.047   1.953   7.961
 2430SOL     OW19348   1.202   1.997   9.131
 2430SOL    HW119349   1.246   1.993   9.221
 2430SOL    HW219350   1.140   2.075   9.128
 2431SOL     OW19351   0.475   3.459   9.023
 2431SOL    HW119352   0.417   3.525   9.071
 2431SOL    HW219353   0.525   3.506   8.949
 2432SOL     OW19354   1.800   3.317   8.928
 2432SOL    HW119355   1.846   3.404   8.949
 2432SOL    HW219356   1.716   3.310   8.982
 2433SOL     OW19357   1.054   2.293   8.471
 2433SOL    HW119358   1.120   2.357   8.510
 2433SOL    HW219359   1.063   2.204   8.516
 2434SOL     OW19360   1.114   3.432   8.544
 2434SOL    HW119361   1.077   3.431   8.636
 2434SOL    HW219362   1.039   3.429   8.478
 2435SOL     OW19363   0.320   3.649   9.166
 2435SOL    HW119364   0.358   3.741   9.171
 2435SOL    HW219365   0.320   3.609   9.258
 2436SOL     OW19366   0.131   3.199   9.004
 2436SOL    HW119367   0.075   3.120   9.025
 2436SOL    HW219368   0.076   3.267   8.955
 2437SOL     OW19369   0.240   3.524   8.456
 2437SOL    HW119370   0.209   3.429   8.461
 2437SOL    HW219371   0.280   3.540   8.365
 2438SOL     OW19372   1.052   1.981   8.223
 2438SOL    HW119373   1.138   2.010   8.265
 2438SOL    HW219374   0.997   1.933   8.291
 2439SOL     OW19375   1.092   3.080   7.769
 2439SOL    HW119376   1.181   3.102   7.808
 2439SOL    HW219377   1.056   2.997   7.811
 2440SOL     OW19378   1.635   2.324   8.120
 2440SOL    HW119379   1.655   2.404   8.177
 2440SOL    HW219380   1.678   2.243   8.159
 2441SOL     OW19381   0.807   2.997   7.674
 2441SOL    HW119382   0.861   3.057   7.615
 2441SOL    HW219383   0.869   2.941   7.729
 2442SOL     OW19384   0.798   1.942   7.539
 2442SOL    HW119385   0.880   1.885   7.537
 2442SOL    HW219386   0.825   2.038   7.553
 2443SOL     OW19387   0.583   2.352   8.110
 2443SOL    HW119388   0.632   2.265   8.114
 2443SOL    HW219389   0.627   2.412   8.043
 2444SOL     OW19390   0.577   2.922   8.838
 2444SOL    HW119391   0.668   2.885   8.857
 2444SOL    HW219392   0.584   2.996   8.772
 2445SOL     OW19393   1.799   2.967   8.741
 2445SOL    HW119394   1.792   3.062   8.712
 2445SOL    HW219395   1.833   2.912   8.665
 2446SOL     OW19396   0.689   3.555   7.633
 2446SOL    HW119397   0.614   3.586   7.575
 2446SOL    HW219398   0.656   3.486   7.697
 2447SOL     OW19399   1.349   2.953   8.864
 2447SOL    HW119400   1.292   2.918   8.938
 2447SOL    HW219401   1.327   3.050   8.849
 2448SOL     OW19402   0.595   3.567   8.797
 2448SOL    HW119403   0.662   3.641   8.787
 2448SOL    HW219404   0.512   3.590   8.744
 2449SOL     OW19405   0.242   2.419   9.117
 2449SOL    HW119406   0.241   2.320   9.107
 2449SOL    HW219407   0.325   2.447   9.166
 2450SOL     OW19408   1.678   3.369   8.440
 2450SOL    HW119409   1.710   3.461   8.464
 2450SOL    HW219410   1.700   3.306   8.513
 2451SOL     OW19411   9.873   2.735   7.874
 2451SOL    HW119412   9.802   2.780   7.820
 2451SOL    HW219413   9.833   2.700   7.959
 2452SOL     OW19414   0.551   2.635   8.906
 2452SOL    HW119415   0.472   2.579   8.881
 2452SOL    HW219416   0.536   2.729   8.875
 2453SOL     OW19417   1.642   3.020   8.244
 2453SOL    HW119418   1.623   3.116   8.224
 2453SOL    HW219419   1.607   2.963   8.169
 2454SOL     OW19420   0.798   2.354   8.374
 2454SOL    HW119421   0.889   2.326   8.406
 2454SOL    HW219422   0.754   2.412   8.442
 2455SOL     OW19423   0.642   3.124   8.653
 2455SOL    HW119424   0.551   3.146   8.619
 2455SOL    HW219425   0.698   3.088   8.578
 2456SOL     OW19426   0.200   2.581   8.572
 2456SOL    HW119427   0.239   2.647   8.636
 2456SOL    HW219428   0.188   2.623   8.483
 2457SOL     OW19429   0.356   3.265   8.862
 2457SOL    HW119430   0.404   3.333   8.918
 2457SOL    HW219431   0.277   3.231   8.912
 2458SOL     OW19432   1.655   3.563   9.164
 2458SOL    HW119433   1.624   3.468   9.151
 2458SOL    HW219434   1.625   3.619   9.087
 2459SOL     OW19435   1.356   3.108   7.857
 2459SOL    HW119436   1.445   3.108   7.902
 2459SOL    HW219437   1.368   3.092   7.759
 2460SOL     OW19438   0.668   2.208   7.825
 2460SOL    HW119439   0.569   2.193   7.823
 2460SOL    HW219440   0.704   2.184   7.916
 2461SOL     OW19441   1.632   1.879   8.128
 2461SOL    HW119442   1.620   1.892   8.029
 2461SOL    HW219443   1.673   1.961   8.167
 2462SOL     OW19444   1.156   2.563   8.814
 2462SOL    HW119445   1.256   2.570   8.811
 2462SOL    HW219446   1.117   2.619   8.741
 2463SOL     OW19447   0.812   2.566   8.195
 2463SOL    HW119448   0.801   2.487   8.254
 2463SOL    HW219449   0.794   2.540   8.100
 2464SOL     OW19450   1.311   3.268   8.434
 2464SOL    HW119451   1.240   3.319   8.481
 2464SOL    HW219452   1.334   3.314   8.348
 2465SOL     OW19453   1.364   2.267   8.114
 2465SOL    HW119454   1.346   2.256   8.017
 2465SOL    HW219455   1.459   2.294   8.128
 2466SOL     OW19456   1.177   3.290   9.989
 2466SOL    HW119457   1.221   3.201   9.975
 2466SOL    HW219458   1.111   3.307   9.916
 2467SOL     OW19459   1.652   3.080   9.822
 2467SOL    HW119460   1.691   3.119   9.906
 2467SOL    HW219461   1.726   3.055   9.760
 2468SOL     OW19462   0.402   2.068   9.196
 2468SOL    HW119463   0.323   2.091   9.140
 2468SOL    HW219464   0.479   2.126   9.171
 2469SOL     OW19465   0.578   3.336   9.603
 2469SOL    HW119466   0.523   3.364   9.682
 2469SOL    HW219467   0.655   3.279   9.635
 2470SOL     OW19468   0.592   1.900   9.332
 2470SOL    HW119469   0.686   1.932   9.327
 2470SOL    HW219470   0.532   1.965   9.287
 2471SOL     OW19471   0.481   3.112   9.935
 2471SOL    HW119472   0.465   3.129   0.032
 2471SOL    HW219473   0.572   3.073   9.923
 2472SOL     OW19474   0.723   2.515   9.761
 2472SOL    HW119475   0.741   2.593   9.821
 2472SOL    HW219476   0.694   2.549   9.671
 2473SOL     OW19477   0.436   3.214   9.393
 2473SOL    HW119478   0.488   3.230   9.310
 2473SOL    HW219479   0.475   3.267   9.468
 2474SOL     OW19480   0.978   3.581   9.845
 2474SOL    HW119481   0.989   3.483   9.827
 2474SOL    HW219482   0.922   3.622   9.773
 2475SOL     OW19483   1.769   3.429   9.589
 2475SOL    HW119484   1.868   3.416   9.577
 2475SOL    HW219485   1.738   3.502   9.529
 2476SOL     OW19486   1.068   2.184   9.642
 2476SOL    HW119487   1.036   2.258   9.701
 2476SOL    HW219488   1.092   2.105   9.698
 2477SOL     OW19489   0.469   2.529   9.236
 2477SOL    HW119490   0.468   2.629   9.244
 2477SOL    HW219491   0.552   2.500   9.187
 2478SOL     OW19492   1.821   3.213   0.031
 2478SOL    HW119493   1.769   3.247   0.110
 2478SOL    HW219494   1.816   3.280   9.957
 2479SOL     OW19495   0.332   3.087   9.702
 2479SOL    HW119496   0.379   3.088   9.790
 2479SOL    HW219497   0.383   3.032   9.636
 2480SOL     OW19498   1.201   2.195   9.390
 2480SOL    HW119499   1.254   2.110   9.391
 2480SOL    HW219500   1.163   2.212   9.481
 2481SOL     OW19501   0.443   2.087   9.689
 2481SOL    HW119502   0.459   2.173   9.738
 2481SOL    HW219503   0.387   2.105   9.608
 2482SOL     OW19504   0.952   2.364   9.814
 2482SOL    HW119505   1.013   2.413   9.877
 2482SOL    HW219506   0.873   2.421   9.792
 2483SOL     OW19507   1.274   2.822   9.409
 2483SOL    HW119508   1.278   2.800   9.506
 2483SOL    HW219509   1.233   2.746   9.359
 2484SOL     OW19510   1.743   2.527   9.571
 2484SOL    HW119511   1.682   2.449   9.560
 2484SOL    HW219512   1.802   2.513   9.651
 2485SOL     OW19513   1.022   3.629   9.370
 2485SOL    HW119514   1.061   3.560   9.308
 2485SOL    HW219515   1.021   3.593   9.463
 2486SOL     OW19516   0.206   3.332   9.669
 2486SOL    HW119517   0.231   3.236   9.676
 2486SOL    HW219518   0.200   3.358   9.572
 2487SOL     OW19519   0.111   3.538   9.841
 2487SOL    HW119520   0.073   3.614   9.789
 2487SOL    HW219521   0.129   3.461   9.780
 2488SOL     OW19522   0.503   2.803   9.267
 2488SOL    HW119523   0.492   2.865   9.189
 2488SOL    HW219524   0.491   2.854   9.352
 2489SOL     OW19525   0.023   2.760   9.477
 2489SOL    HW119526   0.055   2.666   9.469
 2489SOL    HW219527   9.935   2.761   9.524
 2490SOL     OW19528   1.594   2.752   9.633
 2490SOL    HW119529   1.641   2.669   9.604
 2490SOL    HW219530   1.612   2.826   9.569
 2491SOL     OW19531   0.771   2.730   9.264
 2491SOL    HW119532   0.794   2.647   9.316
 2491SOL    HW219533   0.672   2.743   9.265
 2492SOL     OW19534   1.367   2.283   9.670
 2492SOL    HW119535   1.320   2.357   9.624
 2492SOL    HW219536   1.465   2.289   9.653
 2493SOL     OW19537   1.638   2.269   9.655
 2493SOL    HW119538   1.736   2.253   9.638
 2493SOL    HW219539   1.623   2.280   9.753
 2494SOL     OW19540   0.871   2.219   9.458
 2494SOL    HW119541   0.791   2.179   9.503
 2494SOL    HW219542   0.951   2.211   9.517
 2495SOL     OW19543   0.988   3.140   9.375
 2495SOL    HW119544   1.046   3.125   9.455
 2495SOL    HW219545   1.044   3.139   9.292
 2496SOL     OW19546   1.787   3.416   9.859
 2496SOL    HW119547   1.748   3.503   9.892
 2496SOL    HW219548   1.769   3.407   9.761
 2497SOL     OW19549   1.164   2.771   9.922
 2497SOL    HW119550   1.150   2.806   0.015
 2497SOL    HW219551   1.098   2.814   9.860
 2498SOL     OW19552   1.470   2.792   0.024
 2498SOL    HW119553   1.402   2.718   0.024
 2498SOL    HW219554   1.428   2.876   9.990
 2499SOL     OW19555   0.969   2.886   9.760
 2499SOL    HW119556   0.928   2.823   9.695
 2499SOL    HW219557   0.898   2.926   9.818
 2500SOL     OW19558   1.693   3.643   9.428
 2500SOL    HW119559   1.779   3.693   9.420
 2500SOL    HW219560   1.666   3.609   9.337
 2501SOL     OW19561   0.832   2.734   9.572
 2501SOL    HW119562   0.733   2.725   9.576
 2501SOL    HW219563   0.871   2.657   9.522
 2502SOL     OW19564   0.366   3.606   9.434
 2502SOL    HW119565   0.453   3.650   9.409
 2502SOL    HW219566   0.344   3.628   9.529
 2503SOL     OW19567   0.855   1.823   9.624
 2503SOL    HW119568   0.811   1.761   9.558
 2503SOL    HW219569   0.808   1.911   9.623
 2504SOL     OW19570   1.348   1.957   9.401
 2504SOL    HW119571   1.349   1.860   9.379
 2504SOL    HW219572   1.342   1.969   9.501
 2505SOL     OW19573   0.784   2.152   9.870
 2505SOL    HW119574   0.804   2.100   9.953
 2505SOL    HW219575   0.854   2.222   9.856
 2506SOL     OW19576   1.602   1.894   9.666
 2506SOL    HW119577   1.616   1.844   9.581
 2506SOL    HW219578   1.511   1.934   9.667
 2507SOL     OW19579   1.315   2.738   9.672
 2507SOL    HW119580   1.277   2.759   9.762
 2507SOL    HW219581   1.414   2.751   9.674
 2508SOL     OW19582   1.694   2.716   9.884
 2508SOL    HW119583   1.657   2.733   9.793
 2508SOL    HW219584   1.624   2.738   9.952
 2509SOL     OW19585   1.588   2.130   9.393
 2509SOL    HW119586   1.595   2.165   9.487
 2509SOL    HW219587   1.510   2.068   9.387
 2510SOL     OW19588   0.329   2.411   9.444
 2510SOL    HW119589   0.387   2.453   9.373
 2510SOL    HW219590   0.237   2.448   9.437
 2511SOL     OW19591   0.355   3.611   9.951
 2511SOL    HW119592   0.257   3.590   9.942
 2511SOL    HW219593   0.409   3.530   9.929
 2512SOL     OW19594   0.776   3.168   9.697
 2512SOL    HW119595   0.786   3.107   9.619
 2512SOL    HW219596   0.765   3.114   9.781
 2513SOL     OW19597   0.307   2.137   9.454
 2513SOL    HW119598   0.340   2.105   9.365
 2513SOL    HW219599   0.311   2.237   9.458
 2514SOL     OW19600   0.509   2.969   9.494
 2514SOL    HW119601   0.609   2.980   9.495
 2514SOL    HW219602   0.467   3.050   9.455
 2515SOL     OW19603   1.158   2.570   9.302
 2515SOL    HW119604   1.108   2.623   9.234
 2515SOL    HW219605   1.217   2.504   9.257
 2516SOL     OW19606   0.896   2.514   9.411
 2516SOL    HW119607   0.990   2.524   9.379
 2516SOL    HW219608   0.876   2.417   9.424
 2517SOL     OW19609   1.351   2.011   9.668
 2517SOL    HW119610   1.278   1.981   9.730
 2517SOL    HW219611   1.358   2.111   9.670
 2518SOL     OW19612   0.143   1.875   9.414
 2518SOL    HW119613   0.229   1.825   9.421
 2518SOL    HW219614   0.157   1.970   9.443
 2519SOL     OW19615   1.670   2.913   9.423
 2519SOL    HW119616   1.768   2.930   9.429
 2519SOL    HW219617   1.644   2.897   9.328
 2520SOL     OW19618   1.137   1.984   9.834
 2520SOL    HW119619   1.154   2.026   9.923
 2520SOL    HW219620   1.084   1.900   9.846
 2521SOL     OW19621   0.372   1.810   9.679
 2521SOL    HW119622   0.396   1.905   9.698
 2521SOL    HW219623   0.306   1.778   9.747
 2522SOL     OW19624   0.004   3.044   9.444
 2522SOL    HW119625   0.043   2.953   9.462
 2522SOL    HW219626   0.068   3.097   9.389
 2523SOL     OW19627   1.740   2.078   0.059
 2523SOL    HW119628   1.713   2.119   0.146
 2523SOL    HW219629   1.834   2.044   0.065
 2524SOL     OW19630   1.263   2.499   9.548
 2524SOL    HW119631   1.278   2.583   9.600
 2524SOL    HW219632   1.220   2.521   9.461
 2525SOL     OW19633   0.825   3.340   9.270
 2525SOL    HW119634   0.796   3.408   9.337
 2525SOL    HW219635   0.887   3.274   9.313
 2526SOL     OW19636   0.754   3.007   9.920
 2526SOL    HW119637   0.769   3.075   9.992
 2526SOL    HW219638   0.757   2.916   9.960
 2527SOL     OW19639   1.003   3.319   9.775
 2527SOL    HW119640   1.059   3.331   9.693
 2527SOL    HW219641   0.921   3.267   9.751
 2528SOL     OW19642   0.561   2.699   9.575
 2528SOL    HW119643   0.528   2.792   9.559
 2528SOL    HW219644   0.487   2.634   9.559
 2529SOL     OW19645   0.427   3.370   9.833
 2529SOL    HW119646   0.450   3.283   9.876
 2529SOL    HW219647   0.340   3.361   9.783
 2530SOL     OW19648   1.118   3.073   9.613
 2530SOL    HW119649   1.207   3.092   9.654
 2530SOL    HW219650   1.069   3.005   9.667
 2531SOL     OW19651   1.637   2.301   9.930
 2531SOL    HW119652   1.705   2.366   9.964
 2531SOL    HW219653   1.657   2.210   9.967
 2532SOL     OW19654   0.784   2.993   9.484
 2532SOL    HW119655   0.856   3.044   9.437
 2532SOL    HW219656   0.816   2.900   9.503
 2533SOL     OW19657   0.856   1.973   9.315
 2533SOL    HW119658   0.923   1.904   9.339
 2533SOL    HW219659   0.872   2.056   9.369
 2534SOL     OW19660   0.558   2.306   9.845
 2534SOL    HW119661   0.627   2.239   9.869
 2534SOL    HW219662   0.602   2.388   9.808
 2535SOL     OW19663   0.178   3.200   9.284
 2535SOL    HW119664   0.185   3.191   9.184
 2535SOL    HW219665   0.270   3.204   9.323
 2536SOL     OW19666   0.712   3.516   9.448
 2536SOL    HW119667   0.655   3.589   9.410
 2536SOL    HW219668   0.654   3.455   9.503
 2537SOL     OW19669   1.387   3.104   9.712
 2537SOL    HW119670   1.474   3.096   9.760
 2537SOL    HW219671   1.399   3.081   9.615
 2538SOL     OW19672   0.711   2.063   9.625
 2538SOL    HW119673   0.612   2.055   9.629
 2538SOL    HW219674   0.747   2.092   9.714
 2539SOL     OW19675   1.646   1.846   9.937
 2539SOL    HW119676   1.624   1.859   9.841
 2539SOL    HW219677   1.676   1.934   9.976
 2540SOL     OW19678   1.363   2.381   9.937
 2540SOL    HW119679   1.339   2.340   9.849
 2540SOL    HW219680   1.460   2.363   9.956
 2541SOL     OW19681   1.058   5.131   0.766
 2541SOL    HW119682   1.149   5.170   0.772
 2541SOL    HW219683   1.018   5.154   0.677
 2542SOL     OW19684   1.587   4.348   1.394
 2542SOL    HW119685   1.523   4.295   1.451
 2542SOL    HW219686   1.642   4.408   1.453
 2543SOL     OW19687   0.429   3.872   0.007
 2543SOL    HW119688   0.398   3.778   9.990
 2543SOL    HW219689   0.434   3.921   9.920
 2544SOL     OW19690   1.305   5.256   0.816
 2544SOL    HW119691   1.307   5.354   0.839
 2544SOL    HW219692   1.399   5.224   0.802
 2545SOL     OW19693   1.198   3.780   1.296
 2545SOL    HW119694   1.114   3.733   1.325
 2545SOL    HW219695   1.249   3.721   1.234
 2546SOL     OW19696   0.982   4.549   1.761
 2546SOL    HW119697   0.959   4.486   1.687
 2546SOL    HW219698   0.898   4.585   1.802
 2547SOL     OW19699   0.566   5.196   0.462
 2547SOL    HW119700   0.530   5.233   0.547
 2547SOL    HW219701   0.625   5.118   0.482
 2548SOL     OW19702   0.620   3.750   0.175
 2548SOL    HW119703   0.710   3.793   0.164
 2548SOL    HW219704   0.553   3.799   0.119
 2549SOL     OW19705   1.589   4.757   1.557
 2549SOL    HW119706   1.495   4.783   1.535
 2549SOL    HW219707   1.651   4.791   1.486
 2550SOL     OW19708   1.402   4.770   1.243
 2550SOL    HW119709   1.366   4.780   1.335
 2550SOL    HW219710   1.458   4.849   1.220
 2551SOL     OW19711   0.996   5.054   1.475
 2551SOL    HW119712   0.910   5.104   1.464
 2551SOL    HW219713   0.995   4.972   1.417
 2552SOL     OW19714   0.426   4.938   0.673
 2552SOL    HW119715   0.389   4.882   0.747
 2552SOL    HW219716   0.522   4.912   0.656
 2553SOL     OW19717   0.740   4.309   0.570
 2553SOL    HW119718   0.753   4.385   0.506
 2553SOL    HW219719   0.702   4.230   0.521
 2554SOL     OW19720   1.315   4.204   1.808
 2554SOL    HW119721   1.414   4.209   1.819
 2554SOL    HW219722   1.280   4.123   1.856
 2555SOL     OW19723   0.417   5.069   0.196
 2555SOL    HW119724   0.477   5.149   0.187
 2555SOL    HW219725   0.383   5.062   0.289
 2556SOL     OW19726   0.589   4.014   1.010
 2556SOL    HW119727   0.643   4.098   1.005
 2556SOL    HW219728   0.646   3.937   0.981
 2557SOL     OW19729   0.253   4.491   0.474
 2557SOL    HW119730   0.272   4.508   0.571
 2557SOL    HW219731   0.157   4.511   0.454
 2558SOL     OW19732   0.770   5.395   0.643
 2558SOL    HW119733   0.832   5.327   0.602
 2558SOL    HW219734   0.750   5.466   0.576
 2559SOL     OW19735   1.778   5.191   0.303
 2559SOL    HW119736   1.870   5.154   0.317
 2559SOL    HW219737   1.784   5.290   0.292
 2560SOL     OW19738   1.701   4.002   1.157
 2560SOL    HW119739   1.731   4.096   1.170
 2560SOL    HW219740   1.602   4.000   1.145
 2561SOL     OW19741   1.053   4.028   0.293
 2561SOL    HW119742   1.107   4.112   0.298
 2561SOL    HW219743   1.060   3.979   0.380
 2562SOL     OW19744   0.232   4.752   1.589
 2562SOL    HW119745   0.314   4.799   1.621
 2562SOL    HW219746   0.178   4.723   1.668
 2563SOL     OW19747   0.360   4.377   0.032
 2563SOL    HW119748   0.391   4.472   0.032
 2563SOL    HW219749   0.438   4.317   0.015
 2564SOL     OW19750   0.638   5.298   0.858
 2564SOL    HW119751   0.690   5.339   0.783
 2564SOL    HW219752   0.551   5.263   0.823
 2565SOL     OW19753   0.936   4.321   1.598
 2565SOL    HW119754   0.956   4.235   1.645
 2565SOL    HW219755   1.014   4.348   1.543
 2566SOL     OW19756   1.572   5.203   0.806
 2566SOL    HW119757   1.638   5.214   0.881
 2566SOL    HW219758   1.614   5.232   0.720
 2567SOL     OW19759   0.290   4.987   0.432
 2567SOL    HW119760   0.340   4.967   0.516
 2567SOL    HW219761   0.240   4.906   0.402
 2568SOL     OW19762   1.182   3.974   0.041
 2568SOL    HW119763   1.239   4.053   0.019
 2568SOL    HW219764   1.141   3.987   0.132
 2569SOL     OW19765   0.396   4.225   1.267
 2569SOL    HW119766   0.393   4.128   1.241
 2569SOL    HW219767   0.327   4.276   1.216
 2570SOL     OW19768   1.378   4.501   1.304
 2570SOL    HW119769   1.398   4.596   1.281
 2570SOL    HW219770   1.462   4.455   1.333
 2571SOL     OW19771   0.384   3.955   0.448
 2571SOL    HW119772   0.330   3.998   0.521
 2571SOL    HW219773   0.339   3.970   0.360
 2572SOL     OW19774   1.545   5.452   1.319
 2572SOL    HW119775   1.464   5.452   1.259
 2572SOL    HW219776   1.627   5.453   1.263
 2573SOL     OW19777   1.770   4.257   1.214
 2573SOL    HW119778   1.844   4.324   1.211
 2573SOL    HW219779   1.699   4.289   1.277
 2574SOL     OW19780   1.800   5.468   1.177
 2574SOL    HW119781   1.847   5.477   1.265
 2574SOL    HW219782   1.850   5.518   1.107
 2575SOL     OW19783   0.939   4.133   0.658
 2575SOL    HW119784   1.009   4.172   0.718
 2575SOL    HW219785   0.882   4.206   0.621
 2576SOL     OW19786   1.265   4.656   0.182
 2576SOL    HW119787   1.249   4.595   0.260
 2576SOL    HW219788   1.202   4.632   0.108
 2577SOL     OW19789   0.980   4.095   1.749
 2577SOL    HW119790   1.049   4.108   1.821
 2577SOL    HW219791   0.912   4.028   1.781
 2578SOL     OW19792   1.060   5.488   0.106
 2578SOL    HW119793   1.035   5.467   0.011
 2578SOL    HW219794   1.046   5.406   0.162
 2579SOL     OW19795   0.807   3.749   1.686
 2579SOL    HW119796   0.835   3.654   1.669
 2579SOL    HW219797   0.837   3.776   1.777
 2580SOL     OW19798   1.103   5.018   1.740
 2580SOL    HW119799   1.140   4.926   1.737
 2580SOL    HW219800   1.057   5.038   1.653
 2581SOL     OW19801   0.813   4.825   1.750
 2581SOL    HW119802   0.824   4.915   1.790
 2581SOL    HW219803   0.779   4.761   1.820
 2582SOL     OW19804   1.340   3.740   0.893
 2582SOL    HW119805   1.281   3.820   0.895
 2582SOL    HW219806   1.424   3.762   0.843
 2583SOL     OW19807   1.768   3.932   1.794
 2583SOL    HW119808   1.746   3.973   1.883
 2583SOL    HW219809   1.758   3.833   1.799
 2584SOL     OW19810   9.963   4.299   0.569
 2584SOL    HW119811   0.021   4.281   0.649
 2584SOL    HW219812   9.965   4.397   0.548
 2585SOL     OW19813   0.395   3.919   0.828
 2585SOL    HW119814   0.459   3.955   0.896
 2585SOL    HW219815   0.417   3.824   0.808
 2586SOL     OW19816   0.414   3.954   1.210
 2586SOL    HW119817   0.404   3.854   1.213
 2586SOL    HW219818   0.477   3.979   1.137
 2587SOL     OW19819   0.993   4.580   0.953
 2587SOL    HW119820   0.974   4.676   0.931
 2587SOL    HW219821   0.928   4.521   0.905
 2588SOL     OW19822   0.122   5.196   0.375
 2588SOL    HW119823   0.182   5.118   0.390
 2588SOL    HW219824   0.174   5.271   0.333
 2589SOL     OW19825   1.460   5.049   1.235
 2589SOL    HW119826   1.415   5.078   1.151
 2589SOL    HW219827   1.398   5.059   1.312
 2590SOL     OW19828   0.142   5.281   0.641
 2590SOL    HW119829   0.106   5.374   0.637
 2590SOL    HW219830   0.139   5.239   0.550
 2591SOL     OW19831   1.731   5.073   1.267
 2591SOL    HW119832   1.755   5.115   1.355
 2591SOL    HW219833   1.632   5.070   1.257
 2592SOL     OW19834   0.462   4.636   0.018
 2592SOL    HW119835   0.438   4.694   9.941
 2592SOL    HW219836   0.466   4.691   0.102
 2593SOL     OW19837   0.970   4.832   1.309
 2593SOL    HW119838   1.013   4.744   1.287
 2593SOL    HW219839   0.907   4.858   1.235
 2594SOL     OW19840   9.977   4.585   0.168
 2594SOL    HW119841   9.994   4.494   0.129
 2594SOL    HW219842   9.897   4.581   0.227
 2595SOL     OW19843   0.888   5.516   1.002
 2595SOL    HW119844   0.921   5.424   0.979
 2595SOL    HW219845   0.807   5.509   1.060
 2596SOL     OW19846   0.743   4.627   0.074
 2596SOL    HW119847   0.796   4.544   0.092
 2596SOL    HW219848   0.649   4.603   0.052
 2597SOL     OW19849   0.345   4.365   1.494
 2597SOL    HW119850   0.365   4.297   1.424
 2597SOL    HW219851   0.298   4.321   1.571
 2598SOL     OW19852   0.261   3.929   1.445
 2598SOL    HW119853   0.318   3.955   1.367
 2598SOL    HW219854   0.221   3.838   1.428
 2599SOL     OW19855   1.003   4.564   1.233
 2599SOL    HW119856   1.006   4.560   1.133
 2599SOL    HW219857   0.921   4.518   1.266
 2600SOL     OW19858   0.906   5.243   0.964
 2600SOL    HW119859   0.960   5.200   0.891
 2600SOL    HW219860   0.810   5.244   0.938
 2601SOL     OW19861   0.816   4.175   0.279
 2601SOL    HW119862   0.744   4.130   0.331
 2601SOL    HW219863   0.899   4.120   0.283
 2602SOL     OW19864   0.969   4.998   0.204
 2602SOL    HW119865   1.009   4.968   0.290
 2602SOL    HW219866   1.037   5.050   0.152
 2603SOL     OW19867   1.658   5.288   0.552
 2603SOL    HW119868   1.629   5.381   0.530
 2603SOL    HW219869   1.692   5.243   0.469
 2604SOL     OW19870   1.093   4.487   0.666
 2604SOL    HW119871   1.161   4.540   0.716
 2604SOL    HW219872   1.024   4.548   0.628
 2605SOL     OW19873   0.857   5.310   1.648
 2605SOL    HW119874   0.810   5.259   1.576
 2605SOL    HW219875   0.856   5.257   1.733
 2606SOL     OW19876   1.253   4.613   0.867
 2606SOL    HW119877   1.166   4.580   0.905
 2606SOL    HW219878   1.277   4.700   0.910
 2607SOL     OW19879   0.305   4.796   0.879
 2607SOL    HW119880   0.220   4.847   0.867
 2607SOL    HW219881   0.318   4.776   0.976
 2608SOL     OW19882   0.912   4.662   0.556
 2608SOL    HW119883   0.856   4.611   0.491
 2608SOL    HW219884   0.853   4.713   0.619
 2609SOL     OW19885   1.269   5.082   1.432
 2609SOL    HW119886   1.312   5.167   1.464
 2609SOL    HW219887   1.170   5.087   1.444
 2610SOL     OW19888   0.057   3.864   0.556
 2610SOL    HW119889   9.986   3.906   0.499
 2610SOL    HW219890   0.116   3.936   0.594
 2611SOL     OW19891   1.596   5.536   0.191
 2611SOL    HW119892   1.682   5.499   0.225
 2611SOL    HW219893   1.591   5.524   0.092
 2612SOL     OW19894   0.799   4.457   1.393
 2612SOL    HW119895   0.799   4.547   1.436
 2612SOL    HW219896   0.837   4.390   1.456
 2613SOL     OW19897   0.182   5.491   1.391
 2613SOL    HW119898   0.118   5.489   1.315
 2613SOL    HW219899   0.135   5.465   1.476
 2614SOL     OW19900   0.761   4.510   0.387
 2614SOL    HW119901   0.664   4.527   0.372
 2614SOL    HW219902   0.802   4.475   0.302
 2615SOL     OW19903   0.345   4.345   0.889
 2615SOL    HW119904   0.423   4.297   0.850
 2615SOL    HW219905   0.356   4.351   0.989
 2616SOL     OW19906   0.267   5.401   0.260
 2616SOL    HW119907   0.352   5.400   0.206
 2616SOL    HW219908   0.283   5.450   0.345
 2617SOL     OW19909   1.312   5.443   1.164
 2617SOL    HW119910   1.336   5.465   1.069
 2617SOL    HW219911   1.236   5.378   1.165
 2618SOL     OW19912   0.072   4.937   0.866
 2618SOL    HW119913   0.015   5.017   0.847
 2618SOL    HW219914   0.030   4.882   0.938
 2619SOL     OW19915   0.694   3.747   0.444
 2619SOL    HW119916   0.657   3.742   0.351
 2619SOL    HW219917   0.701   3.843   0.471
 2620SOL     OW19918   9.988   4.830   0.577
 2620SOL    HW119919   0.050   4.873   0.642
 2620SOL    HW219920   0.027   4.837   0.485
 2621SOL     OW19921   1.602   4.005   1.581
 2621SOL    HW119922   1.547   4.088   1.577
 2621SOL    HW219923   1.655   4.003   1.666
 2622SOL     OW19924   1.188   3.976   0.920
 2622SOL    HW119925   1.177   4.057   0.862
 2622SOL    HW219926   1.217   4.005   1.011
 2623SOL     OW19927   1.604   3.728   1.595
 2623SOL    HW119928   1.581   3.690   1.506
 2623SOL    HW219929   1.597   3.828   1.591
 2624SOL     OW19930   0.710   3.992   0.712
 2624SOL    HW119931   0.707   3.915   0.776
 2624SOL    HW219932   0.803   4.029   0.709
 2625SOL     OW19933   1.257   4.374   1.102
 2625SOL    HW119934   1.297   4.413   1.019
 2625SOL    HW219935   1.293   4.422   1.182
 2626SOL     OW19936   0.565   5.098   1.781
 2626SOL    HW119937   0.530   5.172   1.722
 2626SOL    HW219938   0.660   5.118   1.805
 2627SOL     OW19939   0.467   4.851   1.698
 2627SOL    HW119940   0.512   4.828   1.612
 2627SOL    HW219941   0.499   4.941   1.729
 2628SOL     OW19942   0.159   5.107   1.081
 2628SOL    HW119943   0.147   5.052   0.999
 2628SOL    HW219944   0.075   5.106   1.136
 2629SOL     OW19945   1.115   4.252   0.821
 2629SOL    HW119946   1.113   4.338   0.770
 2629SOL    HW219947   1.079   4.267   0.913
 2630SOL     OW19948   1.782   4.331   1.730
 2630SOL    HW119949   1.766   4.403   1.662
 2630SOL    HW219950   1.880   4.321   1.746
 2631SOL     OW19951   1.259   4.094   1.156
 2631SOL    HW119952   1.276   4.192   1.149
 2631SOL    HW219953   1.289   4.061   1.246
 2632SOL     OW19954   1.582   4.190   1.841
 2632SOL    HW119955   1.653   4.244   1.796
 2632SOL    HW219956   1.622   4.140   1.918
 2633SOL     OW19957   1.236   4.504   0.418
 2633SOL    HW119958   1.162   4.478   0.481
 2633SOL    HW219959   1.308   4.551   0.468
 2634SOL     OW19960   1.383   4.633   0.621
 2634SOL    HW119961   1.483   4.636   0.621
 2634SOL    HW219962   1.350   4.620   0.715
 2635SOL     OW19963   1.736   4.519   1.536
 2635SOL    HW119964   1.690   4.608   1.540
 2635SOL    HW219965   1.821   4.528   1.484
 2636SOL     OW19966   0.745   5.181   1.434
 2636SOL    HW119967   0.688   5.262   1.419
 2636SOL    HW219968   0.707   5.103   1.384
 2637SOL     OW19969   0.197   3.991   1.700
 2637SOL    HW119970   0.227   3.974   1.606
 2637SOL    HW219971   0.103   3.957   1.712
 2638SOL     OW19972   0.067   5.462   1.672
 2638SOL    HW119973   0.162   5.471   1.702
 2638SOL    HW219974   0.021   5.395   1.728
 2639SOL     OW19975   0.233   4.048   0.655
 2639SOL    HW119976   0.186   4.125   0.699
 2639SOL    HW219977   0.292   4.003   0.722
 2640SOL     OW19978   1.405   5.302   1.511
 2640SOL    HW119979   1.341   5.365   1.553
 2640SOL    HW219980   1.460   5.351   1.443
 2641SOL     OW19981   0.298   4.278   0.287
 2641SOL    HW119982   0.337   4.323   0.206
 2641SOL    HW219983   0.298   4.341   0.364
 2642SOL     OW19984   1.805   3.938   1.404
 2642SOL    HW119985   1.734   3.968   1.467
 2642SOL    HW219986   1.774   3.950   1.310
 2643SOL     OW19987   0.494   5.575   0.677
 2643SOL    HW119988   0.410   5.538   0.636
 2643SOL    HW219989   0.566   5.578   0.607
 2644SOL     OW19990   0.370   5.019   1.238
 2644SOL    HW119991   0.359   5.047   1.333
 2644SOL    HW219992   0.299   5.061   1.181
 2645SOL     OW19993   1.168   5.279   1.833
 2645SOL    HW119994   1.146   5.186   1.804
 2645SOL    HW219995   1.185   5.336   1.752
 2646SOL     OW19996   0.728   4.975   0.511
 2646SOL    HW119997   0.744   4.917   0.431
 2646SOL    HW219998   0.751   4.924   0.594
 2647SOL     OW19999   0.267   4.558   0.740
 2647SOL    HW120000   0.285   4.643   0.789
 2647SOL    HW220001   0.300   4.481   0.794
 2648SOL     OW20002   0.281   4.006   0.201
 2648SOL    HW120003   0.342   3.973   0.130
 2648SOL    HW220004   0.297   4.104   0.217
 2649SOL     OW20005   0.107   4.251   0.795
 2649SOL    HW120006   0.051   4.215   0.870
 2649SOL    HW220007   0.193   4.285   0.832
 2650SOL     OW20008   0.503   4.809   0.229
 2650SOL    HW120009   0.599   4.818   0.252
 2650SOL    HW220010   0.460   4.900   0.226
 2651SOL     OW20011   1.155   4.382   0.004
 2651SOL    HW120012   1.169   4.469   9.956
 2651SOL    HW220013   1.226   4.317   9.976
 2652SOL     OW20014   0.885   4.406   0.152
 2652SOL    HW120015   0.976   4.395   0.112
 2652SOL    HW220016   0.854   4.319   0.190
 2653SOL     OW20017   1.411   4.207   1.544
 2653SOL    HW120018   1.362   4.223   1.630
 2653SOL    HW220019   1.361   4.140   1.490
 2654SOL     OW20020   0.099   3.801   0.164
 2654SOL    HW120021   0.143   3.714   0.187
 2654SOL    HW220022   0.160   3.876   0.189
 2655SOL     OW20023   0.299   4.767   1.158
 2655SOL    HW120024   0.299   4.700   1.232
 2655SOL    HW220025   0.334   4.854   1.192
 2656SOL     OW20026   1.647   4.755   0.293
 2656SOL    HW120027   1.744   4.775   0.281
 2656SOL    HW220028   1.609   4.717   0.209
 2657SOL     OW20029   0.616   4.386   1.200
 2657SOL    HW120030   0.674   4.416   1.276
 2657SOL    HW220031   0.538   4.334   1.235
 2658SOL     OW20032   0.837   4.702   1.510
 2658SOL    HW120033   0.895   4.753   1.447
 2658SOL    HW220034   0.838   4.746   1.600
 2659SOL     OW20035   1.169   4.746   1.705
 2659SOL    HW120036   1.090   4.687   1.714
 2659SOL    HW220037   1.253   4.694   1.723
 2660SOL     OW20038   1.043   3.911   0.544
 2660SOL    HW120039   1.006   3.994   0.586
 2660SOL    HW220040   1.038   3.835   0.610
 2661SOL     OW20041   1.211   5.456   1.623
 2661SOL    HW120042   1.134   5.467   1.560
 2661SOL    HW220043   1.249   5.545   1.645
 2662SOL     OW20044   0.727   3.803   0.908
 2662SOL    HW120045   0.698   3.717   0.950
 2662SOL    HW220046   0.825   3.799   0.886
 2663SOL     OW20047   0.396   5.485   1.227
 2663SOL    HW120048   0.360   5.437   1.147
 2663SOL    HW220049   0.325   5.490   1.297
 2664SOL     OW20050   1.005   4.890   0.891
 2664SOL    HW120051   1.022   4.974   0.840
 2664SOL    HW220052   1.087   4.863   0.940
 2665SOL     OW20053   0.678   4.654   0.945
 2665SOL    HW120054   0.716   4.572   0.901
 2665SOL    HW220055   0.603   4.627   1.005
 2666SOL     OW20056   0.028   4.779   1.090
 2666SOL    HW120057   0.121   4.782   1.128
 2666SOL    HW220058   0.009   4.688   1.055
 2667SOL     OW20059   0.331   3.687   0.499
 2667SOL    HW120060   0.356   3.783   0.485
 2667SOL    HW220061   0.235   3.681   0.525
 2668SOL     OW20062   0.675   4.337   1.728
 2668SOL    HW120063   0.628   4.410   1.679
 2668SOL    HW220064   0.768   4.327   1.693
 2669SOL     OW20065   0.110   4.804   0.316
 2669SOL    HW120066   0.075   4.716   0.285
 2669SOL    HW220067   0.127   4.864   0.238
 2670SOL     OW20068   1.776   3.896   0.910
 2670SOL    HW120069   1.756   3.926   1.003
 2670SOL    HW220070   1.871   3.920   0.887
 2671SOL     OW20071   0.802   4.864   1.085
 2671SOL    HW120072   0.753   4.787   1.044
 2671SOL    HW220073   0.872   4.897   1.022
 2672SOL     OW20074   1.183   4.271   0.266
 2672SOL    HW120075   1.214   4.343   0.328
 2672SOL    HW220076   1.179   4.307   0.173
 2673SOL     OW20077   1.564   5.161   1.684
 2673SOL    HW120078   1.524   5.079   1.724
 2673SOL    HW220079   1.498   5.203   1.621
 2674SOL     OW20080   0.267   4.590   1.371
 2674SOL    HW120081   0.299   4.505   1.412
 2674SOL    HW220082   0.255   4.659   1.442
 2675SOL     OW20083   0.738   5.080   0.081
 2675SOL    HW120084   0.691   5.161   0.115
 2675SOL    HW220085   0.822   5.066   0.133
 2676SOL     OW20086   0.643   5.445   1.097
 2676SOL    HW120087   0.630   5.386   1.017
 2676SOL    HW220088   0.555   5.461   1.141
 2677SOL     OW20089   0.777   4.820   0.740
 2677SOL    HW120090   0.859   4.855   0.785
 2677SOL    HW220091   0.722   4.767   0.805
 2678SOL     OW20092   0.923   5.191   0.531
 2678SOL    HW120093   0.981   5.211   0.451
 2678SOL    HW220094   0.866   5.111   0.510
 2679SOL     OW20095   0.044   4.522   0.974
 2679SOL    HW120096   0.072   4.509   0.879
 2679SOL    HW220097   9.965   4.464   0.993
 2680SOL     OW20098   0.072   4.681   1.805
 2680SOL    HW120099   0.043   4.596   1.761
 2680SOL    HW220100   0.098   4.663   1.900
 2681SOL     OW20101   0.987   5.461   1.453
 2681SOL    HW120102   0.950   5.398   1.522
 2681SOL    HW220103   0.914   5.523   1.423
 2682SOL     OW20104   1.243   4.841   1.026
 2682SOL    HW120105   1.254   4.941   1.027
 2682SOL    HW220106   1.289   4.801   1.105
 2683SOL     OW20107   0.602   4.074   1.770
 2683SOL    HW120108   0.640   4.028   1.690
 2683SOL    HW220109   0.627   4.171   1.767
 2684SOL     OW20110   0.496   4.566   0.358
 2684SOL    HW120111   0.484   4.657   0.317
 2684SOL    HW220112   0.410   4.538   0.402
 2685SOL     OW20113   1.337   3.984   1.401
 2685SOL    HW120114   1.413   3.945   1.454
 2685SOL    HW220115   1.278   3.910   1.368
 2686SOL     OW20116   0.057   3.596   0.593
 2686SOL    HW120117   0.005   3.570   0.511
 2686SOL    HW220118   0.056   3.695   0.604
 2687SOL     OW20119   1.163   3.868   1.711
 2687SOL    HW120120   1.192   3.902   1.800
 2687SOL    HW220121   1.108   3.938   1.665
 2688SOL     OW20122   0.462   5.302   1.633
 2688SOL    HW120123   0.408   5.369   1.685
 2688SOL    HW220124   0.511   5.350   1.559
 2689SOL     OW20125   1.789   5.165   1.527
 2689SOL    HW120126   1.841   5.247   1.552
 2689SOL    HW220127   1.707   5.159   1.583
 2690SOL     OW20128   1.018   4.242   1.089
 2690SOL    HW120129   1.089   4.309   1.108
 2690SOL    HW220130   1.050   4.151   1.116
 2691SOL     OW20131   0.399   5.211   0.733
 2691SOL    HW120132   0.407   5.112   0.716
 2691SOL    HW220133   0.310   5.243   0.700
 2692SOL     OW20134   1.084   5.281   1.173
 2692SOL    HW120135   1.039   5.305   1.259
 2692SOL    HW220136   1.014   5.266   1.103
 2693SOL     OW20137   0.314   5.479   1.791
 2693SOL    HW120138   0.346   5.574   1.799
 2693SOL    HW220139   0.307   5.438   1.881
 2694SOL     OW20140   0.093   5.077   1.623
 2694SOL    HW120141   0.033   5.001   1.648
 2694SOL    HW220142   0.048   5.133   1.553
 2695SOL     OW20143   0.287   5.343   1.016
 2695SOL    HW120144   0.243   5.257   1.044
 2695SOL    HW220145   0.329   5.332   0.926
 2696SOL     OW20146   0.993   3.795   0.844
 2696SOL    HW120147   1.063   3.860   0.874
 2696SOL    HW220148   0.991   3.717   0.906
 2697SOL     OW20149   1.039   4.886   0.442
 2697SOL    HW120150   1.127   4.898   0.488
 2697SOL    HW220151   0.995   4.803   0.476
 2698SOL     OW20152   0.770   4.823   0.277
 2698SOL    HW120153   0.845   4.883   0.251
 2698SOL    HW220154   0.775   4.738   0.224
 2699SOL     OW20155   0.867   3.869   0.152
 2699SOL    HW120156   0.907   3.778   0.138
 2699SOL    HW220157   0.930   3.925   0.206
 2700SOL     OW20158   0.552   4.225   0.764
 2700SOL    HW120159   0.580   4.129   0.767
 2700SOL    HW220160   0.606   4.273   0.694
 2701SOL     OW20161   0.583   4.775   1.464
 2701SOL    HW120162   0.676   4.743   1.480
 2701SOL    HW220163   0.585   4.851   1.398
 2702SOL     OW20164   1.767   4.818   1.363
 2702SOL    HW120165   1.762   4.907   1.318
 2702SOL    HW220166   1.853   4.773   1.338
 2703SOL     OW20167   0.171   4.973   0.111
 2703SOL    HW120168   0.103   5.042   0.087
 2703SOL    HW220169   0.260   5.017   0.124
 2704SOL     OW20170   0.588   5.288   0.206
 2704SOL    HW120171   0.609   5.385   0.194
 2704SOL    HW220172   0.588   5.266   0.304
 2705SOL     OW20173   1.329   4.828   1.496
 2705SOL    HW120174   1.266   4.794   1.566
 2705SOL    HW220175   1.309   4.924   1.477
 2706SOL     OW20176   0.592   5.415   1.417
 2706SOL    HW120177   0.656   5.491   1.413
 2706SOL    HW220178   0.520   5.428   1.348
 2707SOL     OW20179   0.229   4.264   1.720
 2707SOL    HW120180   0.219   4.164   1.724
 2707SOL    HW220181   0.297   4.293   1.787
 2708SOL     OW20182   1.742   5.233   1.033
 2708SOL    HW120183   1.756   5.322   1.078
 2708SOL    HW220184   1.746   5.160   1.102
 2709SOL     OW20185   9.977   4.562   0.497
 2709SOL    HW120186   9.989   4.648   0.547
 2709SOL    HW220187   9.895   4.569   0.439
 2710SOL     OW20188   0.542   4.527   1.590
 2710SOL    HW120189   0.467   4.471   1.555
 2710SOL    HW220190   0.544   4.614   1.541
 2711SOL     OW20191   0.754   4.239   1.021
 2711SOL    HW120192   0.850   4.236   1.050
 2711SOL    HW220193   0.702   4.294   1.086
 2712SOL     OW20194   0.638   4.978   1.281
 2712SOL    HW120195   0.545   4.999   1.250
 2712SOL    HW220196   0.692   4.946   1.203
 2713SOL     OW20197   0.234   4.416   1.151
 2713SOL    HW120198   0.245   4.483   1.224
 2713SOL    HW220199   0.166   4.449   1.086
 2714SOL     OW20200   0.335   5.100   1.492
 2714SOL    HW120201   0.384   5.172   1.540
 2714SOL    HW220202   0.248   5.082   1.538
 2715SOL     OW20203   1.666   5.399   1.781
 2715SOL    HW120204   1.631   5.308   1.761
 2715SOL    HW220205   1.638   5.463   1.709
 2716SOL     OW20206   1.289   4.883   0.545
 2716SOL    HW120207   1.323   4.796   0.583
 2716SOL    HW220208   1.330   4.897   0.455
 2717SOL     OW20209   0.638   4.063   0.465
 2717SOL    HW120210   0.546   4.030   0.444
 2717SOL    HW220211   0.664   4.034   0.557
 2718SOL     OW20212   1.566   3.809   0.759
 2718SOL    HW120213   1.586   3.836   0.665
 2718SOL    HW220214   1.643   3.835   0.818
 2719SOL     OW20215   1.132   4.425   1.438
 2719SOL    HW120216   1.231   4.435   1.432
 2719SOL    HW220217   1.088   4.479   1.366
 2720SOL     OW20218   0.793   4.431   0.828
 2720SOL    HW120219   0.771   4.356   0.890
 2720SOL    HW220220   0.783   4.400   0.733
 2721SOL     OW20221   1.266   5.112   1.046
 2721SOL    HW120222   1.201   5.165   1.100
 2721SOL    HW220223   1.285   5.161   0.960
 2722SOL     OW20224   1.084   5.160   2.609
 2722SOL    HW120225   1.182   5.181   2.608
 2722SOL    HW220226   1.045   5.183   2.520
 2723SOL     OW20227   1.613   4.975   2.413
 2723SOL    HW120228   1.630   5.037   2.490
 2723SOL    HW220229   1.700   4.934   2.384
 2724SOL     OW20230   0.399   3.922   1.863
 2724SOL    HW120231   0.321   3.942   1.804
 2724SOL    HW220232   0.477   3.978   1.836
 2725SOL     OW20233   1.361   5.219   2.665
 2725SOL    HW120234   1.371   5.315   2.689
 2725SOL    HW220235   1.451   5.180   2.645
 2726SOL     OW20236   1.071   4.604   3.584
 2726SOL    HW120237   1.103   4.592   3.490
 2726SOL    HW220238   1.002   4.676   3.586
 2727SOL     OW20239   0.577   5.174   2.252
 2727SOL    HW120240   0.531   5.207   2.335
 2727SOL    HW220241   0.647   5.108   2.276
 2728SOL     OW20242   0.607   3.761   1.982
 2728SOL    HW120243   0.691   3.803   1.949
 2728SOL    HW220244   0.528   3.812   1.947
 2729SOL     OW20245   1.539   4.764   3.079
 2729SOL    HW120246   1.488   4.850   3.088
 2729SOL    HW220247   1.634   4.778   3.106
 2730SOL     OW20248   0.925   5.019   3.329
 2730SOL    HW120249   0.847   5.078   3.307
 2730SOL    HW220250   0.946   4.961   3.250
 2731SOL     OW20251   0.485   4.910   2.551
 2731SOL    HW120252   0.436   4.856   2.619
 2731SOL    HW220253   0.583   4.888   2.555
 2732SOL     OW20254   0.755   4.312   2.417
 2732SOL    HW120255   0.769   4.393   2.359
 2732SOL    HW220256   0.726   4.235   2.360
 2733SOL     OW20257   0.431   5.083   2.017
 2733SOL    HW120258   0.482   5.097   1.932
 2733SOL    HW220259   0.476   5.133   2.091
 2734SOL     OW20260   0.578   4.004   2.848
 2734SOL    HW120261   0.640   4.082   2.844
 2734SOL    HW220262   0.622   3.924   2.808
 2735SOL     OW20263   0.256   4.518   2.314
 2735SOL    HW120264   0.289   4.516   2.409
 2735SOL    HW220265   0.157   4.537   2.314
 2736SOL     OW20266   0.750   5.404   2.454
 2736SOL    HW120267   0.818   5.335   2.426
 2736SOL    HW220268   0.752   5.481   2.390
 2737SOL     OW20269   1.759   5.316   2.254
 2737SOL    HW120270   1.853   5.283   2.246
 2737SOL    HW220271   1.734   5.366   2.171
 2738SOL     OW20272   1.087   4.063   2.184
 2738SOL    HW120273   1.134   4.151   2.193
 2738SOL    HW220274   1.095   4.012   2.269
 2739SOL     OW20275   0.222   4.746   3.422
 2739SOL    HW120276   0.303   4.795   3.454
 2739SOL    HW220277   0.166   4.719   3.500
 2740SOL     OW20278   0.432   4.377   1.884
 2740SOL    HW120279   0.433   4.477   1.884
 2740SOL    HW220280   0.517   4.343   1.843
 2741SOL     OW20281   0.678   5.292   2.696
 2741SOL    HW120282   0.723   5.340   2.620
 2741SOL    HW220283   0.599   5.242   2.661
 2742SOL     OW20284   0.996   4.319   3.437
 2742SOL    HW120285   1.037   4.268   3.513
 2742SOL    HW220286   1.058   4.392   3.409
 2743SOL     OW20287   1.640   5.126   2.672
 2743SOL    HW120288   1.666   5.137   2.768
 2743SOL    HW220289   1.681   5.199   2.617
 2744SOL     OW20290   0.349   4.940   2.316
 2744SOL    HW120291   0.397   4.930   2.402
 2744SOL    HW220292   0.403   4.900   2.242
 2745SOL     OW20293   1.217   3.991   1.952
 2745SOL    HW120294   1.304   3.949   1.978
 2745SOL    HW220295   1.166   4.014   2.035
 2746SOL     OW20296   0.372   4.232   3.076
 2746SOL    HW120297   0.360   4.136   3.051
 2746SOL    HW220298   0.295   4.285   3.042
 2747SOL     OW20299   1.381   4.583   3.200
 2747SOL    HW120300   1.436   4.656   3.160
 2747SOL    HW220301   1.396   4.498   3.148
 2748SOL     OW20302   0.400   3.984   2.300
 2748SOL    HW120303   0.346   4.011   2.379
 2748SOL    HW220304   0.348   4.000   2.216
 2749SOL     OW20305   0.986   4.180   2.509
 2749SOL    HW120306   1.042   4.235   2.570
 2749SOL    HW220307   0.910   4.235   2.475
 2750SOL     OW20308   1.254   4.700   2.013
 2750SOL    HW120309   1.270   4.645   2.094
 2750SOL    HW220310   1.199   4.648   1.947
 2751SOL     OW20311   1.081   4.174   3.675
 2751SOL    HW120312   1.155   4.114   3.707
 2751SOL    HW220313   0.992   4.131   3.697
 2752SOL     OW20314   1.753   4.395   2.214
 2752SOL    HW120315   1.693   4.316   2.226
 2752SOL    HW220316   1.819   4.399   2.289
 2753SOL     OW20317   1.012   5.466   1.988
 2753SOL    HW120318   1.048   5.411   1.913
 2753SOL    HW220319   1.026   5.418   2.074
 2754SOL     OW20320   0.756   3.721   3.568
 2754SOL    HW120321   0.774   3.626   3.547
 2754SOL    HW220322   0.777   3.738   3.664
 2755SOL     OW20323   1.735   4.383   2.812
 2755SOL    HW120324   1.681   4.467   2.817
 2755SOL    HW220325   1.802   4.381   2.885
 2756SOL     OW20326   1.067   5.039   3.557
 2756SOL    HW120327   1.139   4.970   3.543
 2756SOL    HW220328   1.007   5.041   3.478
 2757SOL     OW20329   0.850   4.772   3.591
 2757SOL    HW120330   0.831   4.869   3.609
 2757SOL    HW220331   0.797   4.715   3.654
 2758SOL     OW20332   9.969   4.340   2.425
 2758SOL    HW120333   0.027   4.307   2.500
 2758SOL    HW220334   9.972   4.440   2.422
 2759SOL     OW20335   0.364   3.907   2.689
 2759SOL    HW120336   0.438   3.954   2.738
 2759SOL    HW220337   0.400   3.824   2.646
 2760SOL     OW20338   0.355   3.965   3.005
 2760SOL    HW120339   0.297   3.903   2.951
 2760SOL    HW220340   0.443   3.977   2.959
 2761SOL     OW20341   0.997   4.506   2.817
 2761SOL    HW120342   0.911   4.494   2.767
 2761SOL    HW220343   1.070   4.456   2.770
 2762SOL     OW20344   0.271   5.212   2.276
 2762SOL    HW120345   0.296   5.115   2.274
 2762SOL    HW220346   0.293   5.253   2.187
 2763SOL     OW20347   0.242   5.349   2.508
 2763SOL    HW120348   0.153   5.394   2.508
 2763SOL    HW220349   0.256   5.302   2.420
 2764SOL     OW20350   1.704   5.062   3.190
 2764SOL    HW120351   1.757   5.113   3.257
 2764SOL    HW220352   1.620   5.028   3.233
 2765SOL     OW20353   0.476   4.652   1.892
 2765SOL    HW120354   0.466   4.706   1.809
 2765SOL    HW220355   0.469   4.711   1.972
 2766SOL     OW20356   0.954   4.826   3.123
 2766SOL    HW120357   0.980   4.731   3.107
 2766SOL    HW220358   0.893   4.856   3.051
 2767SOL     OW20359   0.119   4.629   2.071
 2767SOL    HW120360   0.200   4.620   2.129
 2767SOL    HW220361   0.058   4.551   2.087
 2768SOL     OW20362   1.585   4.612   2.257
 2768SOL    HW120363   1.647   4.534   2.242
 2768SOL    HW220364   1.604   4.683   2.189
 2769SOL     OW20365   0.884   5.517   2.880
 2769SOL    HW120366   0.921   5.427   2.856
 2769SOL    HW220367   0.802   5.505   2.936
 2770SOL     OW20368   0.750   4.606   1.919
 2770SOL    HW120369   0.778   4.516   1.952
 2770SOL    HW220370   0.651   4.605   1.902
 2771SOL     OW20371   1.370   4.150   2.339
 2771SOL    HW120372   1.322   4.211   2.276
 2771SOL    HW220373   1.469   4.167   2.333
 2772SOL     OW20374   0.345   4.352   3.321
 2772SOL    HW120375   0.357   4.289   3.245
 2772SOL    HW220376   0.293   4.308   3.394
 2773SOL     OW20377   0.219   3.924   3.247
 2773SOL    HW120378   0.279   3.941   3.169
 2773SOL    HW220379   0.142   3.866   3.218
 2774SOL     OW20380   0.996   4.558   3.084
 2774SOL    HW120381   1.002   4.540   2.986
 2774SOL    HW220382   0.923   4.502   3.123
 2775SOL     OW20383   1.641   4.175   2.352
 2775SOL    HW120384   1.721   4.123   2.323
 2775SOL    HW220385   1.643   4.185   2.452
 2776SOL     OW20386   0.935   5.260   2.815
 2776SOL    HW120387   0.995   5.224   2.744
 2776SOL    HW220388   0.840   5.252   2.786
 2777SOL     OW20389   0.833   4.099   2.094
 2777SOL    HW120390   0.766   4.082   2.166
 2777SOL    HW220391   0.925   4.089   2.131
 2778SOL     OW20392   0.986   4.982   2.003
 2778SOL    HW120393   1.035   4.965   2.089
 2778SOL    HW220394   1.052   4.986   1.928
 2779SOL     OW20395   1.742   5.329   2.526
 2779SOL    HW120396   1.701   5.416   2.552
 2779SOL    HW220397   1.742   5.321   2.427
 2780SOL     OW20398   1.197   4.605   2.464
 2780SOL    HW120399   1.236   4.628   2.554
 2780SOL    HW220400   1.106   4.646   2.456
 2781SOL     OW20401   0.803   5.311   3.498
 2781SOL    HW120402   0.765   5.253   3.425
 2781SOL    HW220403   0.810   5.258   3.582
 2782SOL     OW20404   1.344   4.666   2.698
 2782SOL    HW120405   1.421   4.636   2.754
 2782SOL    HW220406   1.285   4.726   2.752
 2783SOL     OW20407   0.331   4.766   2.731
 2783SOL    HW120408   0.247   4.816   2.709
 2783SOL    HW220409   0.334   4.749   2.830
 2784SOL     OW20410   0.941   4.704   2.393
 2784SOL    HW120411   0.893   4.637   2.336
 2784SOL    HW220412   0.877   4.745   2.458
 2785SOL     OW20413   0.079   3.944   2.288
 2785SOL    HW120414   0.123   3.984   2.208
 2785SOL    HW220415   0.117   3.985   2.371
 2786SOL     OW20416   1.690   5.489   2.038
 2786SOL    HW120417   1.777   5.538   2.042
 2786SOL    HW220418   1.681   5.445   1.949
 2787SOL     OW20419   0.816   4.425   3.254
 2787SOL    HW120420   0.804   4.518   3.289
 2787SOL    HW220421   0.870   4.372   3.320
 2788SOL     OW20422   0.160   5.481   3.215
 2788SOL    HW120423   0.094   5.479   3.139
 2788SOL    HW220424   0.116   5.446   3.298
 2789SOL     OW20425   0.782   4.523   2.248
 2789SOL    HW120426   0.686   4.548   2.236
 2789SOL    HW220427   0.814   4.477   2.165
 2790SOL     OW20428   0.365   4.312   2.738
 2790SOL    HW120429   0.432   4.265   2.680
 2790SOL    HW220430   0.392   4.302   2.834
 2791SOL     OW20431   0.344   5.411   2.065
 2791SOL    HW120432   0.430   5.451   2.033
 2791SOL    HW220433   0.312   5.459   2.146
 2792SOL     OW20434   0.084   4.894   2.732
 2792SOL    HW120435   0.016   4.898   2.660
 2792SOL    HW220436   0.045   4.852   2.813
 2793SOL     OW20437   0.678   3.762   2.254
 2793SOL    HW120438   0.644   3.746   2.162
 2793SOL    HW220439   0.680   3.861   2.272
 2794SOL     OW20440   0.085   4.866   2.333
 2794SOL    HW120441   0.180   4.897   2.340
 2794SOL    HW220442   0.050   4.882   2.241
 2795SOL     OW20443   1.220   3.974   2.796
 2795SOL    HW120444   1.265   4.030   2.727
 2795SOL    HW220445   1.285   3.908   2.833
 2796SOL     OW20446   1.447   3.880   2.051
 2796SOL    HW120447   1.512   3.807   2.030
 2796SOL    HW220448   1.413   3.869   2.144
 2797SOL     OW20449   1.546   3.702   3.451
 2797SOL    HW120450   1.538   3.709   3.351
 2797SOL    HW220451   1.469   3.749   3.494
 2798SOL     OW20452   0.753   4.003   2.558
 2798SOL    HW120453   0.736   3.920   2.611
 2798SOL    HW220454   0.848   4.032   2.571
 2799SOL     OW20455   1.646   3.829   2.282
 2799SOL    HW120456   1.651   3.776   2.198
 2799SOL    HW220457   1.550   3.840   2.309
 2800SOL     OW20458   0.553   5.091   3.627
 2800SOL    HW120459   0.519   5.162   3.565
 2800SOL    HW220460   0.644   5.117   3.659
 2801SOL     OW20461   0.458   4.847   3.532
 2801SOL    HW120462   0.503   4.825   3.445
 2801SOL    HW220463   0.490   4.936   3.564
 2802SOL     OW20464   0.163   5.121   2.877
 2802SOL    HW120465   0.150   5.041   2.819
 2802SOL    HW220466   0.075   5.166   2.891
 2803SOL     OW20467   1.144   4.299   2.701
 2803SOL    HW120468   1.231   4.258   2.675
 2803SOL    HW220469   1.106   4.250   2.780
 2804SOL     OW20470   1.320   4.549   2.234
 2804SOL    HW120471   1.271   4.570   2.319
 2804SOL    HW220472   1.417   4.571   2.245
 2805SOL     OW20473   1.570   4.669   2.525
 2805SOL    HW120474   1.566   4.656   2.426
 2805SOL    HW220475   1.477   4.666   2.562
 2806SOL     OW20476   1.826   4.697   3.387
 2806SOL    HW120477   1.750   4.635   3.406
 2806SOL    HW220478   1.812   4.740   3.298
 2807SOL     OW20479   1.688   4.032   2.040
 2807SOL    HW120480   1.744   4.035   2.124
 2807SOL    HW220481   1.602   3.986   2.059
 2808SOL     OW20482   0.697   5.171   3.281
 2808SOL    HW120483   0.649   5.256   3.261
 2808SOL    HW220484   0.663   5.098   3.223
 2809SOL     OW20485   0.194   3.973   3.516
 2809SOL    HW120486   0.216   3.960   3.419
 2809SOL    HW220487   0.103   3.936   3.535
 2810SOL     OW20488   0.057   5.452   3.502
 2810SOL    HW120489   0.150   5.463   3.536
 2810SOL    HW220490   0.010   5.382   3.556
 2811SOL     OW20491   0.220   4.042   2.503
 2811SOL    HW120492   0.173   4.119   2.545
 2811SOL    HW220493   0.269   3.990   2.573
 2812SOL     OW20494   0.276   4.300   2.101
 2812SOL    HW120495   0.335   4.328   2.025
 2812SOL    HW220496   0.293   4.359   2.180
 2813SOL     OW20497   0.490   5.506   2.544
 2813SOL    HW120498   0.405   5.459   2.520
 2813SOL    HW220499   0.567   5.461   2.497
 2814SOL     OW20500   0.343   5.009   3.064
 2814SOL    HW120501   0.333   5.043   3.158
 2814SOL    HW220502   0.280   5.059   3.004
 2815SOL     OW20503   1.193   5.282   3.607
 2815SOL    HW120504   1.144   5.197   3.590
 2815SOL    HW220505   1.197   5.335   3.522
 2816SOL     OW20506   0.762   4.985   2.326
 2816SOL    HW120507   0.778   4.924   2.248
 2816SOL    HW220508   0.761   4.932   2.411
 2817SOL     OW20509   0.307   4.533   2.583
 2817SOL    HW120510   0.327   4.618   2.632
 2817SOL    HW220511   0.336   4.455   2.640
 2818SOL     OW20512   0.242   4.025   2.075
 2818SOL    HW120513   0.300   3.988   2.002
 2818SOL    HW220514   0.248   4.125   2.075
 2819SOL     OW20515   0.108   4.248   2.647
 2819SOL    HW120516   0.042   4.247   2.722
 2819SOL    HW220517   0.198   4.276   2.682
 2820SOL     OW20518   0.503   4.836   2.104
 2820SOL    HW120519   0.603   4.839   2.104
 2820SOL    HW220520   0.467   4.920   2.064
 2821SOL     OW20521   1.122   4.369   1.912
 2821SOL    HW120522   1.083   4.439   1.852
 2821SOL    HW220523   1.196   4.321   1.864
 2822SOL     OW20524   0.862   4.373   2.027
 2822SOL    HW120525   0.956   4.375   1.992
 2822SOL    HW220526   0.833   4.278   2.038
 2823SOL     OW20527   1.362   3.880   2.312
 2823SOL    HW120528   1.277   3.848   2.355
 2823SOL    HW220529   1.370   3.979   2.323
 2824SOL     OW20530   0.044   3.810   1.971
 2824SOL    HW120531   0.063   3.729   2.027
 2824SOL    HW220532   0.095   3.888   2.006
 2825SOL     OW20533   0.306   4.746   3.002
 2825SOL    HW120534   0.301   4.684   3.080
 2825SOL    HW220535   0.327   4.838   3.033
 2826SOL     OW20536   1.654   4.772   2.048
 2826SOL    HW120537   1.752   4.782   2.062
 2826SOL    HW220538   1.636   4.751   1.952
 2827SOL     OW20539   0.648   4.317   3.060
 2827SOL    HW120540   0.695   4.359   3.138
 2827SOL    HW220541   0.553   4.299   3.085
 2828SOL     OW20542   0.831   4.689   3.333
 2828SOL    HW120543   0.883   4.748   3.272
 2828SOL    HW220544   0.844   4.720   3.428
 2829SOL     OW20545   1.093   3.941   2.435
 2829SOL    HW120546   1.064   4.034   2.457
 2829SOL    HW220547   1.063   3.879   2.507
 2830SOL     OW20548   1.222   5.470   3.402
 2830SOL    HW120549   1.125   5.469   3.379
 2830SOL    HW220550   1.245   5.557   3.447
 2831SOL     OW20551   0.672   3.791   2.709
 2831SOL    HW120552   0.598   3.737   2.669
 2831SOL    HW220553   0.741   3.730   2.747
 2832SOL     OW20554   0.376   5.478   3.047
 2832SOL    HW120555   0.341   5.442   2.961
 2832SOL    HW220556   0.304   5.475   3.117
 2833SOL     OW20557   0.974   4.932   2.711
 2833SOL    HW120558   1.012   5.015   2.671
 2833SOL    HW220559   1.048   4.880   2.754
 2834SOL     OW20560   0.661   4.667   2.761
 2834SOL    HW120561   0.700   4.579   2.735
 2834SOL    HW220562   0.568   4.655   2.796
 2835SOL     OW20563   0.029   4.789   2.986
 2835SOL    HW120564   0.127   4.767   2.982
 2835SOL    HW220565   9.991   4.756   3.072
 2836SOL     OW20566   0.322   3.713   2.240
 2836SOL    HW120567   0.364   3.798   2.272
 2836SOL    HW220568   0.232   3.702   2.281
 2837SOL     OW20569   0.642   4.340   3.591
 2837SOL    HW120570   0.607   4.407   3.525
 2837SOL    HW220571   0.740   4.355   3.604
 2838SOL     OW20572   0.025   4.892   2.063
 2838SOL    HW120573   0.063   4.800   2.055
 2838SOL    HW220574   0.078   4.956   2.006
 2839SOL     OW20575   0.784   4.875   2.909
 2839SOL    HW120576   0.740   4.796   2.865
 2839SOL    HW220577   0.848   4.917   2.845
 2840SOL     OW20578   1.221   4.306   2.163
 2840SOL    HW120579   1.256   4.392   2.200
 2840SOL    HW220580   1.183   4.322   2.071
 2841SOL     OW20581   0.242   4.575   3.212
 2841SOL    HW120582   0.283   4.492   3.248
 2841SOL    HW220583   0.234   4.643   3.285
 2842SOL     OW20584   0.817   5.159   1.876
 2842SOL    HW120585   0.773   5.223   1.939
 2842SOL    HW220586   0.883   5.103   1.926
 2843SOL     OW20587   0.634   5.424   2.946
 2843SOL    HW120588   0.635   5.368   2.862
 2843SOL    HW220589   0.540   5.439   2.974
 2844SOL     OW20590   0.763   4.835   2.568
 2844SOL    HW120591   0.840   4.880   2.613
 2844SOL    HW220592   0.724   4.767   2.630
 2845SOL     OW20593   0.937   5.205   2.373
 2845SOL    HW120594   1.003   5.222   2.300
 2845SOL    HW220595   0.882   5.124   2.351
 2846SOL     OW20596   0.088   4.534   2.774
 2846SOL    HW120597   0.139   4.534   2.688
 2846SOL    HW220598   9.999   4.577   2.759
 2847SOL     OW20599   0.065   4.663   3.636
 2847SOL    HW120600   0.035   4.581   3.588
 2847SOL    HW220601   0.089   4.640   3.730
 2848SOL     OW20602   0.961   5.479   3.351
 2848SOL    HW120603   0.910   5.411   3.403
 2848SOL    HW220604   0.897   5.540   3.305
 2849SOL     OW20605   1.189   4.832   2.859
 2849SOL    HW120606   1.230   4.923   2.869
 2849SOL    HW220607   1.159   4.799   2.949
 2850SOL     OW20608   0.582   4.074   3.613
 2850SOL    HW120609   0.628   4.026   3.538
 2850SOL    HW220610   0.603   4.171   3.608
 2851SOL     OW20611   0.516   4.587   2.226
 2851SOL    HW120612   0.506   4.679   2.187
 2851SOL    HW220613   0.427   4.557   2.261
 2852SOL     OW20614   1.594   4.630   2.845
 2852SOL    HW120615   1.636   4.701   2.788
 2852SOL    HW220616   1.568   4.669   2.933
 2853SOL     OW20617   0.056   3.677   2.321
 2853SOL    HW120618   0.004   3.634   2.248
 2853SOL    HW220619   0.045   3.777   2.315
 2854SOL     OW20620   1.336   3.808   3.590
 2854SOL    HW120621   1.370   3.778   3.679
 2854SOL    HW220622   1.289   3.896   3.599
 2855SOL     OW20623   0.447   5.291   3.476
 2855SOL    HW120624   0.390   5.355   3.529
 2855SOL    HW220625   0.491   5.340   3.400
 2856SOL     OW20626   1.809   5.186   3.410
 2856SOL    HW120627   1.877   5.259   3.412
 2856SOL    HW220628   1.734   5.210   3.471
 2857SOL     OW20629   1.038   4.151   2.910
 2857SOL    HW120630   1.056   4.166   3.007
 2857SOL    HW220631   1.096   4.076   2.877
 2858SOL     OW20632   0.473   5.185   2.543
 2858SOL    HW120633   0.467   5.085   2.546
 2858SOL    HW220634   0.381   5.224   2.539
 2859SOL     OW20635   1.137   5.261   3.019
 2859SOL    HW120636   1.053   5.274   2.966
 2859SOL    HW220637   1.167   5.349   3.056
 2860SOL     OW20638   0.302   5.474   3.628
 2860SOL    HW120639   0.342   5.565   3.621
 2860SOL    HW220640   0.293   5.449   3.725
 2861SOL     OW20641   0.078   5.083   3.441
 2861SOL    HW120642   0.024   5.005   3.473
 2861SOL    HW220643   0.029   5.130   3.368
 2862SOL     OW20644   0.266   5.370   2.819
 2862SOL    HW120645   0.240   5.276   2.840
 2862SOL    HW220646   0.276   5.381   2.720
 2863SOL     OW20647   0.999   3.843   2.679
 2863SOL    HW120648   1.071   3.889   2.731
 2863SOL    HW220649   0.958   3.771   2.735
 2864SOL     OW20650   1.082   4.909   2.252
 2864SOL    HW120651   1.173   4.927   2.290
 2864SOL    HW220652   1.039   4.834   2.302
 2865SOL     OW20653   1.635   4.185   2.640
 2865SOL    HW120654   1.652   4.265   2.697
 2865SOL    HW220655   1.712   4.121   2.648
 2866SOL     OW20656   0.776   4.831   2.089
 2866SOL    HW120657   0.852   4.888   2.059
 2866SOL    HW220658   0.782   4.741   2.047
 2867SOL     OW20659   0.860   3.878   1.931
 2867SOL    HW120660   0.939   3.834   1.974
 2867SOL    HW220661   0.837   3.961   1.981
 2868SOL     OW20662   0.556   4.200   2.584
 2868SOL    HW120663   0.612   4.118   2.595
 2868SOL    HW220664   0.604   4.265   2.525
 2869SOL     OW20665   0.576   4.771   3.298
 2869SOL    HW120666   0.669   4.736   3.308
 2869SOL    HW220667   0.576   4.845   3.231
 2870SOL     OW20668   1.799   4.809   3.143
 2870SOL    HW120669   1.785   4.908   3.147
 2870SOL    HW220670   1.863   4.787   3.069
 2871SOL     OW20671   0.173   5.066   1.905
 2871SOL    HW120672   0.176   5.068   1.805
 2871SOL    HW220673   0.267   5.074   1.940
 2872SOL     OW20674   0.679   5.320   2.040
 2872SOL    HW120675   0.634   5.408   2.024
 2872SOL    HW220676   0.645   5.281   2.126
 2873SOL     OW20677   0.560   5.414   3.258
 2873SOL    HW120678   0.628   5.487   3.260
 2873SOL    HW220679   0.498   5.428   3.181
 2874SOL     OW20680   0.210   4.250   3.538
 2874SOL    HW120681   0.208   4.151   3.544
 2874SOL    HW220682   0.270   4.287   3.609
 2875SOL     OW20683   1.717   5.178   2.939
 2875SOL    HW120684   1.668   5.265   2.947
 2875SOL    HW220685   1.709   5.127   3.025
 2876SOL     OW20686   9.991   4.612   2.376
 2876SOL    HW120687   0.033   4.703   2.376
 2876SOL    HW220688   9.896   4.620   2.345
 2877SOL     OW20689   0.536   4.520   3.420
 2877SOL    HW120690   0.464   4.462   3.381
 2877SOL    HW220691   0.538   4.608   3.373
 2878SOL     OW20692   1.686   4.852   2.696
 2878SOL    HW120693   1.660   4.948   2.690
 2878SOL    HW220694   1.645   4.801   2.620
 2879SOL     OW20695   0.770   4.208   2.849
 2879SOL    HW120696   0.866   4.186   2.867
 2879SOL    HW220697   0.729   4.251   2.929
 2880SOL     OW20698   0.612   4.971   3.110
 2880SOL    HW120699   0.519   4.990   3.078
 2880SOL    HW220700   0.670   4.947   3.032
 2881SOL     OW20701   0.171   4.403   2.998
 2881SOL    HW120702   0.187   4.470   3.069
 2881SOL    HW220703   0.144   4.450   2.913
 2882SOL     OW20704   0.323   5.096   3.320
 2882SOL    HW120705   0.375   5.163   3.372
 2882SOL    HW220706   0.233   5.084   3.362
 2883SOL     OW20707   1.441   5.384   3.671
 2883SOL    HW120708   1.352   5.340   3.660
 2883SOL    HW220709   1.458   5.443   3.593
 2884SOL     OW20710   1.350   4.951   2.324
 2884SOL    HW120711   1.441   4.954   2.365
 2884SOL    HW220712   1.359   4.942   2.225
 2885SOL     OW20713   0.666   4.049   2.307
 2885SOL    HW120714   0.568   4.034   2.302
 2885SOL    HW220715   0.699   4.029   2.399
 2886SOL     OW20716   1.142   4.535   3.323
 2886SOL    HW120717   1.237   4.556   3.298
 2886SOL    HW220718   1.083   4.547   3.243
 2887SOL     OW20719   0.766   4.426   2.679
 2887SOL    HW120720   0.758   4.345   2.737
 2887SOL    HW220721   0.767   4.399   2.583
 2888SOL     OW20722   1.292   5.084   2.894
 2888SOL    HW120723   1.231   5.146   2.943
 2888SOL    HW220724   1.318   5.124   2.806
 2889SOL     OW20725   1.360   4.137   2.619
 2889SOL    HW120726   1.343   4.137   2.521
 2889SOL    HW220727   1.456   4.154   2.637
 2890SOL     OW20728   1.615   4.304   5.147
 2890SOL    HW120729   1.531   4.270   5.189
 2890SOL    HW220730   1.687   4.309   5.217
 2891SOL     OW20731   0.391   3.900   3.688
 2891SOL    HW120732   0.316   3.920   3.625
 2891SOL    HW220733   0.468   3.962   3.669
 2892SOL     OW20734   1.176   3.794   4.973
 2892SOL    HW120735   1.101   3.733   4.998
 2892SOL    HW220736   1.244   3.743   4.919
 2893SOL     OW20737   1.005   4.544   5.458
 2893SOL    HW120738   0.984   4.481   5.383
 2893SOL    HW220739   0.920   4.576   5.500
 2894SOL     OW20740   0.535   5.180   4.085
 2894SOL    HW120741   0.482   5.203   4.167
 2894SOL    HW220742   0.599   5.107   4.106
 2895SOL     OW20743   0.556   3.725   3.837
 2895SOL    HW120744   0.650   3.759   3.839
 2895SOL    HW220745   0.498   3.790   3.789
 2896SOL     OW20746   1.607   4.759   5.237
 2896SOL    HW120747   1.513   4.787   5.216
 2896SOL    HW220748   1.666   4.781   5.159
 2897SOL     OW20749   1.496   4.702   4.946
 2897SOL    HW120750   1.432   4.748   5.008
 2897SOL    HW220751   1.588   4.736   4.961
 2898SOL     OW20752   0.995   5.034   5.171
 2898SOL    HW120753   0.910   5.087   5.159
 2898SOL    HW220754   0.989   4.950   5.117
 2899SOL     OW20755   0.475   4.919   4.401
 2899SOL    HW120756   0.432   4.867   4.474
 2899SOL    HW220757   0.573   4.900   4.400
 2900SOL     OW20758   0.746   4.298   4.246
 2900SOL    HW120759   0.748   4.380   4.190
 2900SOL    HW220760   0.719   4.219   4.190
 2901SOL     OW20761   1.346   4.193   5.520
 2901SOL    HW120762   1.445   4.177   5.519
 2901SOL    HW220763   1.303   4.127   5.583
 2902SOL     OW20764   0.403   5.087   3.854
 2902SOL    HW120765   0.459   5.096   3.772
 2902SOL    HW220766   0.447   5.135   3.930
 2903SOL     OW20767   0.583   3.999   4.682
 2903SOL    HW120768   0.642   4.080   4.684
 2903SOL    HW220769   0.631   3.923   4.639
 2904SOL     OW20770   0.236   4.541   4.166
 2904SOL    HW120771   0.272   4.540   4.259
 2904SOL    HW220772   0.137   4.555   4.169
 2905SOL     OW20773   1.695   5.311   4.109
 2905SOL    HW120774   1.788   5.280   4.090
 2905SOL    HW220775   1.655   5.349   4.026
 2906SOL     OW20776   1.662   4.030   4.851
 2906SOL    HW120777   1.698   4.122   4.865
 2906SOL    HW220778   1.562   4.032   4.854
 2907SOL     OW20779   1.110   4.056   4.030
 2907SOL    HW120780   1.129   4.153   4.041
 2907SOL    HW220781   1.115   4.010   4.119
 2908SOL     OW20782   0.227   4.742   5.275
 2908SOL    HW120783   0.311   4.790   5.301
 2908SOL    HW220784   0.174   4.721   5.357
 2909SOL     OW20785   0.392   4.377   3.714
 2909SOL    HW120786   0.391   4.477   3.718
 2909SOL    HW220787   0.480   4.346   3.679
 2910SOL     OW20788   0.590   5.297   4.499
 2910SOL    HW120789   0.682   5.267   4.475
 2910SOL    HW220790   0.523   5.249   4.442
 2911SOL     OW20791   0.949   4.301   5.309
 2911SOL    HW120792   0.974   4.219   5.360
 2911SOL    HW220793   1.027   4.333   5.256
 2912SOL     OW20794   1.711   5.042   4.531
 2912SOL    HW120795   1.698   5.084   4.621
 2912SOL    HW220796   1.689   5.109   4.459
 2913SOL     OW20797   0.342   4.914   4.162
 2913SOL    HW120798   0.395   4.910   4.247
 2913SOL    HW220799   0.400   4.884   4.086
 2914SOL     OW20800   1.246   3.987   3.802
 2914SOL    HW120801   1.311   3.914   3.823
 2914SOL    HW220802   1.197   4.012   3.885
 2915SOL     OW20803   0.385   4.200   4.941
 2915SOL    HW120804   0.381   4.104   4.914
 2915SOL    HW220805   0.313   4.251   4.894
 2916SOL     OW20806   1.412   4.446   5.020
 2916SOL    HW120807   1.438   4.538   4.990
 2916SOL    HW220808   1.490   4.402   5.065
 2917SOL     OW20809   0.407   3.996   4.127
 2917SOL    HW120810   0.353   4.023   4.207
 2917SOL    HW220811   0.349   3.995   4.046
 2918SOL     OW20812   1.579   5.428   5.030
 2918SOL    HW120813   1.501   5.437   4.967
 2918SOL    HW220814   1.664   5.423   4.977
 2919SOL     OW20815   1.748   4.286   4.907
 2919SOL    HW120816   1.842   4.319   4.917
 2919SOL    HW220817   1.700   4.297   4.994
 2920SOL     OW20818   1.828   5.418   4.889
 2920SOL    HW120819   1.859   5.466   4.971
 2920SOL    HW220820   1.906   5.401   4.829
 2921SOL     OW20821   0.973   4.165   4.336
 2921SOL    HW120822   1.011   4.211   4.416
 2921SOL    HW220823   0.901   4.221   4.296
 2922SOL     OW20824   1.140   4.668   3.942
 2922SOL    HW120825   1.072   4.671   4.015
 2922SOL    HW220826   1.124   4.588   3.885
 2923SOL     OW20827   1.005   4.074   5.471
 2923SOL    HW120828   1.068   4.075   5.548
 2923SOL    HW220829   0.913   4.049   5.503
 2924SOL     OW20830   1.080   5.473   3.776
 2924SOL    HW120831   1.119   5.403   3.716
 2924SOL    HW220832   1.068   5.434   3.868
 2925SOL     OW20833   0.805   3.739   5.375
 2925SOL    HW120834   0.823   3.646   5.344
 2925SOL    HW220835   0.809   3.742   5.475
 2926SOL     OW20836   1.676   4.374   4.657
 2926SOL    HW120837   1.619   4.457   4.659
 2926SOL    HW220838   1.701   4.349   4.750
 2927SOL     OW20839   1.110   4.984   5.425
 2927SOL    HW120840   1.153   4.895   5.411
 2927SOL    HW220841   1.057   5.009   5.344
 2928SOL     OW20842   0.821   4.810   5.450
 2928SOL    HW120843   0.851   4.890   5.501
 2928SOL    HW220844   0.791   4.739   5.514
 2929SOL     OW20845   1.407   3.670   4.584
 2929SOL    HW120846   1.364   3.759   4.601
 2929SOL    HW220847   1.495   3.684   4.538
 2930SOL     OW20848   9.962   4.337   4.267
 2930SOL    HW120849   0.023   4.302   4.337
 2930SOL    HW220850   9.969   4.437   4.264
 2931SOL     OW20851   0.393   3.903   4.491
 2931SOL    HW120852   0.450   3.942   4.563
 2931SOL    HW220853   0.435   3.819   4.457
 2932SOL     OW20854   0.405   3.925   4.878
 2932SOL    HW120855   0.389   3.827   4.870
 2932SOL    HW220856   0.470   3.954   4.808
 2933SOL     OW20857   1.120   4.497   4.708
 2933SOL    HW120858   1.169   4.574   4.668
 2933SOL    HW220859   1.096   4.432   4.636
 2934SOL     OW20860   0.191   5.142   4.110
 2934SOL    HW120861   0.246   5.059   4.123
 2934SOL    HW220862   0.213   5.183   4.021
 2935SOL     OW20863   0.092   5.285   4.321
 2935SOL    HW120864   0.086   5.377   4.283
 2935SOL    HW220865   0.116   5.220   4.248
 2936SOL     OW20866   1.831   5.055   5.007
 2936SOL    HW120867   1.817   5.106   5.092
 2936SOL    HW220868   1.788   5.104   4.932
 2937SOL     OW20869   0.444   4.651   3.727
 2937SOL    HW120870   0.442   4.705   3.643
 2937SOL    HW220871   0.440   4.711   3.806
 2938SOL     OW20872   0.961   4.812   5.012
 2938SOL    HW120873   1.004   4.724   4.993
 2938SOL    HW220874   0.898   4.835   4.937
 2939SOL     OW20875   0.109   4.608   3.906
 2939SOL    HW120876   0.185   4.604   3.971
 2939SOL    HW220877   0.049   4.530   3.921
 2940SOL     OW20878   0.869   5.512   4.699
 2940SOL    HW120879   0.946   5.484   4.756
 2940SOL    HW220880   0.786   5.466   4.729
 2941SOL     OW20881   0.717   4.611   3.769
 2941SOL    HW120882   0.748   4.518   3.789
 2941SOL    HW220883   0.619   4.609   3.748
 2942SOL     OW20884   0.351   4.348   5.169
 2942SOL    HW120885   0.365   4.276   5.100
 2942SOL    HW220886   0.304   4.310   5.248
 2943SOL     OW20887   0.249   3.906   5.114
 2943SOL    HW120888   0.307   3.931   5.036
 2943SOL    HW220889   0.210   3.816   5.098
 2944SOL     OW20890   1.022   4.550   4.958
 2944SOL    HW120891   1.053   4.530   4.865
 2944SOL    HW220892   0.940   4.497   4.978
 2945SOL     OW20893   0.861   4.080   3.913
 2945SOL    HW120894   0.790   4.069   3.982
 2945SOL    HW220895   0.951   4.071   3.956
 2946SOL     OW20896   0.985   4.989   3.814
 2946SOL    HW120897   1.066   4.966   3.868
 2946SOL    HW220898   1.013   5.006   3.719
 2947SOL     OW20899   1.656   5.275   4.377
 2947SOL    HW120900   1.630   5.363   4.418
 2947SOL    HW220901   1.655   5.283   4.277
 2948SOL     OW20902   0.870   5.300   5.327
 2948SOL    HW120903   0.823   5.248   5.257
 2948SOL    HW220904   0.867   5.250   5.414
 2949SOL     OW20905   1.272   4.710   4.615
 2949SOL    HW120906   1.357   4.669   4.648
 2949SOL    HW220907   1.288   4.750   4.525
 2950SOL     OW20908   0.334   4.774   4.590
 2950SOL    HW120909   0.250   4.823   4.564
 2950SOL    HW220910   0.332   4.755   4.688
 2951SOL     OW20911   0.947   4.672   4.138
 2951SOL    HW120912   0.871   4.610   4.115
 2951SOL    HW220913   0.924   4.723   4.221
 2952SOL     OW20914   1.259   5.085   5.102
 2952SOL    HW120915   1.296   5.170   5.140
 2952SOL    HW220916   1.162   5.078   5.126
 2953SOL     OW20917   0.071   3.862   4.192
 2953SOL    HW120918   0.019   3.905   4.118
 2953SOL    HW220919   0.117   3.932   4.246
 2954SOL     OW20920   1.574   5.453   3.898
 2954SOL    HW120921   1.668   5.473   3.869
 2954SOL    HW220922   1.523   5.416   3.821
 2955SOL     OW20923   0.805   4.426   5.097
 2955SOL    HW120924   0.797   4.517   5.139
 2955SOL    HW220925   0.849   4.364   5.162
 2956SOL     OW20926   0.187   5.513   5.073
 2956SOL    HW120927   0.120   5.506   4.999
 2956SOL    HW220928   0.144   5.487   5.160
 2957SOL     OW20929   0.742   4.503   4.072
 2957SOL    HW120930   0.647   4.535   4.066
 2957SOL    HW220931   0.767   4.456   3.988
 2958SOL     OW20932   0.365   4.319   4.567
 2958SOL    HW120933   0.430   4.268   4.510
 2958SOL    HW220934   0.395   4.316   4.662
 2959SOL     OW20935   0.321   5.464   3.911
 2959SOL    HW120936   0.407   5.501   3.876
 2959SOL    HW220937   0.319   5.471   4.011
 2960SOL     OW20938   1.342   5.413   4.875
 2960SOL    HW120939   1.363   5.461   4.790
 2960SOL    HW220940   1.346   5.314   4.860
 2961SOL     OW20941   0.091   4.899   4.561
 2961SOL    HW120942   0.033   4.900   4.480
 2961SOL    HW220943   0.044   4.853   4.636
 2962SOL     OW20944   0.755   3.762   4.111
 2962SOL    HW120945   0.783   3.751   4.016
 2962SOL    HW220946   0.720   3.854   4.125
 2963SOL     OW20947   0.077   4.848   4.179
 2963SOL    HW120948   0.174   4.869   4.186
 2963SOL    HW220949   0.045   4.870   4.087
 2964SOL     OW20950   1.565   3.992   5.246
 2964SOL    HW120951   1.482   4.021   5.199
 2964SOL    HW220952   1.583   4.053   5.323
 2965SOL     OW20953   1.294   3.916   4.655
 2965SOL    HW120954   1.291   3.991   4.588
 2965SOL    HW220955   1.331   3.951   4.741
 2966SOL     OW20956   1.410   3.744   3.848
 2966SOL    HW120957   1.508   3.746   3.868
 2966SOL    HW220958   1.374   3.652   3.864
 2967SOL     OW20959   1.597   3.727   5.276
 2967SOL    HW120960   1.587   3.681   5.188
 2967SOL    HW220961   1.576   3.824   5.266
 2968SOL     OW20962   0.749   3.999   4.375
 2968SOL    HW120963   0.738   3.919   4.434
 2968SOL    HW220964   0.841   4.036   4.385
 2969SOL     OW20965   1.249   4.302   4.859
 2969SOL    HW120966   1.209   4.370   4.797
 2969SOL    HW220967   1.309   4.347   4.924
 2970SOL     OW20968   1.593   3.715   4.164
 2970SOL    HW120969   1.617   3.684   4.072
 2970SOL    HW220970   1.498   3.746   4.166
 2971SOL     OW20971   0.565   5.091   5.466
 2971SOL    HW120972   0.529   5.165   5.409
 2971SOL    HW220973   0.661   5.108   5.486
 2972SOL     OW20974   0.465   4.846   5.378
 2972SOL    HW120975   0.511   4.822   5.293
 2972SOL    HW220976   0.498   4.935   5.410
 2973SOL     OW20977   0.156   5.094   4.752
 2973SOL    HW120978   0.144   5.032   4.675
 2973SOL    HW220979   0.071   5.097   4.805
 2974SOL     OW20980   1.083   4.268   4.561
 2974SOL    HW120981   1.166   4.223   4.529
 2974SOL    HW220982   1.050   4.222   4.643
 2975SOL     OW20983   1.822   4.303   5.365
 2975SOL    HW120984   1.819   4.394   5.325
 2975SOL    HW220985   1.917   4.279   5.388
 2976SOL     OW20986   1.383   4.056   4.882
 2976SOL    HW120987   1.346   4.147   4.861
 2976SOL    HW220988   1.355   4.030   4.975
 2977SOL     OW20989   1.626   4.137   5.475
 2977SOL    HW120990   1.694   4.205   5.446
 2977SOL    HW220991   1.672   4.053   5.501
 2978SOL     OW20992   1.799   4.541   5.235
 2978SOL    HW120993   1.717   4.594   5.215
 2978SOL    HW220994   1.876   4.603   5.247
 2979SOL     OW20995   0.747   5.164   5.124
 2979SOL    HW120996   0.691   5.246   5.109
 2979SOL    HW220997   0.708   5.088   5.072
 2980SOL     OW20998   0.180   3.996   5.361
 2980SOL    HW120999   0.211   3.971   5.269
 2980SOL    HW221000   0.088   3.960   5.376
 2981SOL     OW21001   0.073   5.472   5.350
 2981SOL    HW121002   0.165   5.479   5.388
 2981SOL    HW221003   0.023   5.400   5.399
 2982SOL     OW21004   0.223   4.039   4.333
 2982SOL    HW121005   0.178   4.114   4.381
 2982SOL    HW221006   0.282   3.989   4.396
 2983SOL     OW21007   1.380   5.316   5.210
 2983SOL    HW121008   1.327   5.399   5.202
 2983SOL    HW221009   1.465   5.325   5.157
 2984SOL     OW21010   0.257   4.279   3.933
 2984SOL    HW121011   0.305   4.315   3.852
 2984SOL    HW221012   0.296   4.320   4.015
 2985SOL     OW21013   1.780   3.926   5.083
 2985SOL    HW121014   1.709   3.954   5.147
 2985SOL    HW221015   1.751   3.948   4.990
 2986SOL     OW21016   0.471   5.537   4.441
 2986SOL    HW121017   0.430   5.537   4.349
 2986SOL    HW221018   0.508   5.446   4.460
 2987SOL     OW21019   0.366   5.006   4.921
 2987SOL    HW121020   0.355   5.041   5.014
 2987SOL    HW221021   0.299   5.050   4.861
 2988SOL     OW21022   1.237   5.230   5.472
 2988SOL    HW121023   1.191   5.141   5.468
 2988SOL    HW221024   1.262   5.259   5.380
 2989SOL     OW21025   0.695   4.969   4.152
 2989SOL    HW121026   0.732   4.921   4.073
 2989SOL    HW221027   0.720   4.920   4.235
 2990SOL     OW21028   0.300   4.548   4.432
 2990SOL    HW121029   0.327   4.630   4.484
 2990SOL    HW221030   0.335   4.467   4.478
 2991SOL     OW21031   0.245   4.002   3.904
 2991SOL    HW121032   0.301   3.972   3.827
 2991SOL    HW221033   0.241   4.102   3.906
 2992SOL     OW21034   0.111   4.246   4.482
 2992SOL    HW121035   0.055   4.226   4.562
 2992SOL    HW221036   0.202   4.275   4.512
 2993SOL     OW21037   0.487   4.838   3.933
 2993SOL    HW121038   0.587   4.845   3.929
 2993SOL    HW221039   0.446   4.922   3.897
 2994SOL     OW21040   1.092   4.428   3.784
 2994SOL    HW121041   1.090   4.497   3.712
 2994SOL    HW221042   1.105   4.338   3.743
 2995SOL     OW21043   0.830   4.365   3.850
 2995SOL    HW121044   0.925   4.391   3.831
 2995SOL    HW221045   0.825   4.266   3.863
 2996SOL     OW21046   1.331   3.803   4.147
 2996SOL    HW121047   1.260   3.846   4.202
 2996SOL    HW221048   1.306   3.809   4.050
 2997SOL     OW21049   1.377   4.218   5.245
 2997SOL    HW121050   1.353   4.225   5.342
 2997SOL    HW221051   1.316   4.153   5.200
 2998SOL     OW21052   0.031   3.825   3.886
 2998SOL    HW121053   0.063   3.735   3.917
 2998SOL    HW221054   0.106   3.891   3.890
 2999SOL     OW21055   0.282   4.751   4.861
 2999SOL    HW121056   0.281   4.685   4.936
 2999SOL    HW221057   0.320   4.838   4.893
 3000SOL     OW21058   0.629   4.339   4.897
 3000SOL    HW121059   0.681   4.376   4.975
 3000SOL    HW221060   0.545   4.298   4.930
 3001SOL     OW21061   0.831   4.679   5.213
 3001SOL    HW121062   0.888   4.729   5.149
 3001SOL    HW221063   0.831   4.725   5.301
 3002SOL     OW21064   1.191   4.726   5.351
 3002SOL    HW121065   1.111   4.671   5.374
 3002SOL    HW221066   1.274   4.673   5.369
 3003SOL     OW21067   1.125   3.944   4.287
 3003SOL    HW121068   1.073   4.028   4.302
 3003SOL    HW221069   1.107   3.880   4.362
 3004SOL     OW21070   0.694   3.796   4.541
 3004SOL    HW121071   0.633   3.733   4.493
 3004SOL    HW221072   0.765   3.745   4.589
 3005SOL     OW21073   0.398   5.431   4.916
 3005SOL    HW121074   0.349   5.396   4.836
 3005SOL    HW221075   0.331   5.464   4.983
 3006SOL     OW21076   0.693   4.662   4.596
 3006SOL    HW121077   0.729   4.574   4.566
 3006SOL    HW221078   0.604   4.650   4.639
 3007SOL     OW21079   0.010   4.789   4.803
 3007SOL    HW121080   0.106   4.776   4.826
 3007SOL    HW221081   9.960   4.703   4.816
 3008SOL     OW21082   0.307   3.726   4.144
 3008SOL    HW121083   0.374   3.800   4.145
 3008SOL    HW221084   0.217   3.763   4.165
 3009SOL     OW21085   0.681   4.329   5.411
 3009SOL    HW121086   0.635   4.401   5.360
 3009SOL    HW221087   0.777   4.322   5.382
 3010SOL     OW21088   0.022   4.875   3.907
 3010SOL    HW121089   0.058   4.783   3.892
 3010SOL    HW221090   0.065   4.938   3.843
 3011SOL     OW21091   1.722   3.961   4.585
 3011SOL    HW121092   1.712   3.962   4.685
 3011SOL    HW221093   1.790   4.030   4.558
 3012SOL     OW21094   0.810   4.847   4.773
 3012SOL    HW121095   0.770   4.777   4.715
 3012SOL    HW221096   0.905   4.863   4.745
 3013SOL     OW21097   1.151   4.324   4.037
 3013SOL    HW121098   1.181   4.393   4.103
 3013SOL    HW221099   1.139   4.367   3.947
 3014SOL     OW21100   1.556   5.177   5.380
 3014SOL    HW121101   1.527   5.091   5.422
 3014SOL    HW221102   1.480   5.215   5.327
 3015SOL     OW21103   0.235   4.564   5.065
 3015SOL    HW121104   0.282   4.484   5.101
 3015SOL    HW221105   0.230   4.635   5.137
 3016SOL     OW21106   0.791   5.174   3.736
 3016SOL    HW121107   0.758   5.240   3.803
 3016SOL    HW221108   0.862   5.116   3.778
 3017SOL     OW21109   0.628   5.401   4.755
 3017SOL    HW121110   0.600   5.354   4.672
 3017SOL    HW221111   0.549   5.414   4.815
 3018SOL     OW21112   0.753   4.852   4.404
 3018SOL    HW121113   0.826   4.908   4.445
 3018SOL    HW221114   0.733   4.775   4.464
 3019SOL     OW21115   0.092   4.521   4.625
 3019SOL    HW121116   0.150   4.539   4.546
 3019SOL    HW221117   0.012   4.468   4.595
 3020SOL     OW21118   0.073   4.691   5.501
 3020SOL    HW121119   0.045   4.604   5.461
 3020SOL    HW221120   0.101   4.678   5.596
 3021SOL     OW21121   0.995   5.464   5.137
 3021SOL    HW121122   0.965   5.400   5.208
 3021SOL    HW221123   0.920   5.527   5.117
 3022SOL     OW21124   1.077   4.874   4.724
 3022SOL    HW121125   1.115   4.919   4.804
 3022SOL    HW221126   1.145   4.812   4.685
 3023SOL     OW21127   0.587   4.073   5.431
 3023SOL    HW121128   0.633   4.024   5.358
 3023SOL    HW221129   0.617   4.169   5.431
 3024SOL     OW21130   0.485   4.589   4.056
 3024SOL    HW121131   0.482   4.680   4.015
 3024SOL    HW221132   0.397   4.568   4.099
 3025SOL     OW21133   1.520   4.611   4.687
 3025SOL    HW121134   1.585   4.669   4.638
 3025SOL    HW221135   1.514   4.641   4.782
 3026SOL     OW21136   1.283   3.976   5.139
 3026SOL    HW121137   1.261   3.946   5.232
 3026SOL    HW221138   1.242   3.913   5.073
 3027SOL     OW21139   9.984   3.611   4.253
 3027SOL    HW121140   9.971   3.573   4.162
 3027SOL    HW221141   0.009   3.707   4.246
 3028SOL     OW21142   1.198   3.886   5.386
 3028SOL    HW121143   1.240   3.864   5.473
 3028SOL    HW221144   1.121   3.949   5.400
 3029SOL     OW21145   0.460   5.298   5.320
 3029SOL    HW121146   0.409   5.365   5.373
 3029SOL    HW221147   0.512   5.344   5.248
 3030SOL     OW21148   1.798   5.180   5.251
 3030SOL    HW121149   1.842   5.266   5.275
 3030SOL    HW221150   1.709   5.174   5.295
 3031SOL     OW21151   1.025   4.144   4.802
 3031SOL    HW121152   1.100   4.198   4.840
 3031SOL    HW221153   1.040   4.047   4.822
 3032SOL     OW21154   0.404   5.181   4.341
 3032SOL    HW121155   0.418   5.085   4.363
 3032SOL    HW221156   0.307   5.200   4.329
 3033SOL     OW21157   1.063   5.433   4.868
 3033SOL    HW121158   1.033   5.430   4.964
 3033SOL    HW221159   1.162   5.425   4.864
 3034SOL     OW21160   0.314   5.473   5.487
 3034SOL    HW121161   0.345   5.567   5.503
 3034SOL    HW221162   0.302   5.427   5.575
 3035SOL     OW21163   0.087   5.075   5.303
 3035SOL    HW121164   0.025   5.002   5.332
 3035SOL    HW221165   0.041   5.131   5.234
 3036SOL     OW21166   0.252   5.346   4.700
 3036SOL    HW121167   0.219   5.253   4.717
 3036SOL    HW221168   0.258   5.361   4.601
 3037SOL     OW21169   1.062   3.824   4.533
 3037SOL    HW121170   1.143   3.849   4.586
 3037SOL    HW221171   0.997   3.777   4.591
 3038SOL     OW21172   1.528   4.161   4.575
 3038SOL    HW121173   1.577   4.244   4.601
 3038SOL    HW221174   1.592   4.084   4.573
 3039SOL     OW21175   0.764   4.846   3.913
 3039SOL    HW121176   0.845   4.896   3.881
 3039SOL    HW221177   0.763   4.755   3.872
 3040SOL     OW21178   0.819   3.804   3.835
 3040SOL    HW121179   0.903   3.749   3.825
 3040SOL    HW221180   0.844   3.900   3.845
 3041SOL     OW21181   0.545   4.193   4.412
 3041SOL    HW121182   0.589   4.104   4.420
 3041SOL    HW221183   0.602   4.254   4.357
 3042SOL     OW21184   0.583   4.763   5.147
 3042SOL    HW121185   0.674   4.728   5.169
 3042SOL    HW221186   0.590   4.837   5.081
 3043SOL     OW21187   1.749   4.796   5.002
 3043SOL    HW121188   1.778   4.892   5.008
 3043SOL    HW221189   1.808   4.747   4.937
 3044SOL     OW21190   0.153   5.056   3.734
 3044SOL    HW121191   0.157   5.057   3.635
 3044SOL    HW221192   0.246   5.066   3.771
 3045SOL     OW21193   0.673   5.346   3.909
 3045SOL    HW121194   0.623   5.428   3.882
 3045SOL    HW221195   0.623   5.298   3.981
 3046SOL     OW21196   1.353   4.832   5.146
 3046SOL    HW121197   1.287   4.792   5.210
 3046SOL    HW221198   1.325   4.925   5.123
 3047SOL     OW21199   0.599   5.399   5.102
 3047SOL    HW121200   0.659   5.478   5.091
 3047SOL    HW221201   0.527   5.403   5.033
 3048SOL     OW21202   0.232   4.265   5.398
 3048SOL    HW121203   0.215   4.166   5.400
 3048SOL    HW221204   0.300   4.289   5.468
 3049SOL     OW21205   1.767   5.182   4.766
 3049SOL    HW121206   1.763   5.274   4.804
 3049SOL    HW221207   1.850   5.172   4.711
 3050SOL     OW21208   9.968   4.608   4.230
 3050SOL    HW121209   0.012   4.697   4.225
 3050SOL    HW221210   9.871   4.617   4.205
 3051SOL     OW21211   0.543   4.512   5.270
 3051SOL    HW121212   0.471   4.455   5.231
 3051SOL    HW221213   0.543   4.602   5.225
 3052SOL     OW21214   1.694   4.764   4.548
 3052SOL    HW121215   1.692   4.862   4.529
 3052SOL    HW221216   1.772   4.723   4.501
 3053SOL     OW21217   0.768   4.209   4.706
 3053SOL    HW121218   0.858   4.185   4.742
 3053SOL    HW221219   0.718   4.262   4.775
 3054SOL     OW21220   0.637   4.963   4.964
 3054SOL    HW121221   0.545   4.985   4.933
 3054SOL    HW221222   0.691   4.931   4.886
 3055SOL     OW21223   0.205   4.389   4.838
 3055SOL    HW121224   0.219   4.453   4.914
 3055SOL    HW221225   0.170   4.439   4.759
 3056SOL     OW21226   0.330   5.099   5.173
 3056SOL    HW121227   0.381   5.169   5.223
 3056SOL    HW221228   0.243   5.082   5.219
 3057SOL     OW21229   1.647   5.416   5.488
 3057SOL    HW121230   1.616   5.323   5.471
 3057SOL    HW221231   1.616   5.476   5.414
 3058SOL     OW21232   0.676   4.046   4.123
 3058SOL    HW121233   0.578   4.032   4.114
 3058SOL    HW221234   0.704   4.026   4.217
 3059SOL     OW21235   1.639   3.728   4.447
 3059SOL    HW121236   1.623   3.744   4.349
 3059SOL    HW221237   1.677   3.810   4.488
 3060SOL     OW21238   1.148   4.413   5.165
 3060SOL    HW121239   1.247   4.406   5.158
 3060SOL    HW221240   1.113   4.472   5.092
 3061SOL     OW21241   0.762   4.413   4.511
 3061SOL    HW121242   0.766   4.338   4.577
 3061SOL    HW221243   0.764   4.376   4.418
 3062SOL     OW21244   1.288   4.122   4.470
 3062SOL    HW121245   1.295   4.080   4.380
 3062SOL    HW221246   1.380   4.145   4.503
 3063SOL     OW21247   1.093   5.141   6.279
 3063SOL    HW121248   1.190   5.165   6.285
 3063SOL    HW221249   1.061   5.158   6.186
 3064SOL     OW21250   1.614   4.975   6.096
 3064SOL    HW121251   1.623   5.041   6.170
 3064SOL    HW221252   1.704   4.934   6.076
 3065SOL     OW21253   1.640   4.348   6.926
 3065SOL    HW121254   1.570   4.299   6.979
 3065SOL    HW221255   1.692   4.407   6.987
 3066SOL     OW21256   0.381   3.928   5.526
 3066SOL    HW121257   0.302   3.949   5.469
 3066SOL    HW221258   0.459   3.983   5.496
 3067SOL     OW21259   1.357   5.221   6.338
 3067SOL    HW121260   1.361   5.319   6.357
 3067SOL    HW221261   1.448   5.187   6.317
 3068SOL     OW21262   1.226   3.751   6.889
 3068SOL    HW121263   1.149   3.705   6.932
 3068SOL    HW221264   1.266   3.692   6.819
 3069SOL     OW21265   0.989   4.550   7.270
 3069SOL    HW121266   0.990   4.484   7.195
 3069SOL    HW221267   0.895   4.569   7.297
 3070SOL     OW21268   0.568   5.174   5.949
 3070SOL    HW121269   0.523   5.215   6.028
 3070SOL    HW221270   0.639   5.111   5.980
 3071SOL     OW21271   0.541   3.735   5.644
 3071SOL    HW121272   0.636   3.764   5.645
 3071SOL    HW221273   0.484   3.808   5.606
 3072SOL     OW21274   1.598   4.742   7.086
 3072SOL    HW121275   1.503   4.763   7.062
 3072SOL    HW221276   1.658   4.769   7.011
 3073SOL     OW21277   1.449   4.745   6.765
 3073SOL    HW121278   1.401   4.745   6.853
 3073SOL    HW221279   1.479   4.838   6.743
 3074SOL     OW21280   0.999   5.051   7.000
 3074SOL    HW121281   0.913   5.102   6.995
 3074SOL    HW221282   0.995   4.972   6.938
 3075SOL     OW21283   0.492   4.933   6.254
 3075SOL    HW121284   0.438   4.882   6.320
 3075SOL    HW221285   0.588   4.905   6.260
 3076SOL     OW21286   0.756   4.339   6.085
 3076SOL    HW121287   0.769   4.422   6.030
 3076SOL    HW221288   0.744   4.260   6.025
 3077SOL     OW21289   1.275   4.208   7.298
 3077SOL    HW121290   1.372   4.194   7.321
 3077SOL    HW221291   1.222   4.128   7.327
 3078SOL     OW21292   0.431   5.076   5.703
 3078SOL    HW121293   0.481   5.089   5.618
 3078SOL    HW221294   0.474   5.131   5.775
 3079SOL     OW21295   0.585   4.020   6.535
 3079SOL    HW121296   0.643   4.101   6.531
 3079SOL    HW221297   0.634   3.942   6.495
 3080SOL     OW21298   0.253   4.530   6.005
 3080SOL    HW121299   0.286   4.540   6.099
 3080SOL    HW221300   0.153   4.535   6.004
 3081SOL     OW21301   0.807   5.371   6.152
 3081SOL    HW121302   0.870   5.306   6.109
 3081SOL    HW221303   0.789   5.447   6.090
 3082SOL     OW21304   1.789   5.312   5.956
 3082SOL    HW121305   1.881   5.276   5.941
 3082SOL    HW221306   1.763   5.369   5.877
 3083SOL     OW21307   1.689   4.027   6.664
 3083SOL    HW121308   1.730   4.117   6.677
 3083SOL    HW221309   1.589   4.036   6.668
 3084SOL     OW21310   1.056   4.089   5.915
 3084SOL    HW121311   1.106   4.173   5.930
 3084SOL    HW221312   1.053   4.036   6.000
 3085SOL     OW21313   0.240   4.710   7.128
 3085SOL    HW121314   0.320   4.764   7.153
 3085SOL    HW221315   0.183   4.696   7.208
 3086SOL     OW21316   0.439   4.379   5.563
 3086SOL    HW121317   0.442   4.479   5.562
 3086SOL    HW221318   0.523   4.343   5.521
 3087SOL     OW21319   0.679   5.285   6.374
 3087SOL    HW121320   0.730   5.323   6.297
 3087SOL    HW221321   0.596   5.241   6.340
 3088SOL     OW21322   1.025   4.340   7.093
 3088SOL    HW121323   1.068   4.265   7.143
 3088SOL    HW221324   1.092   4.383   7.032
 3089SOL     OW21325   1.630   5.140   6.331
 3089SOL    HW121326   1.635   5.159   6.429
 3089SOL    HW221327   1.686   5.207   6.282
 3090SOL     OW21328   0.356   4.927   6.013
 3090SOL    HW121329   0.406   4.929   6.099
 3090SOL    HW221330   0.413   4.887   5.941
 3091SOL     OW21331   1.188   4.024   5.678
 3091SOL    HW121332   1.229   3.933   5.691
 3091SOL    HW221333   1.145   4.053   5.763
 3092SOL     OW21334   0.447   4.286   6.789
 3092SOL    HW121335   0.445   4.186   6.790
 3092SOL    HW221336   0.365   4.322   6.745
 3093SOL     OW21337   1.434   4.472   6.795
 3093SOL    HW121338   1.449   4.570   6.782
 3093SOL    HW221339   1.515   4.431   6.837
 3094SOL     OW21340   0.394   3.966   5.989
 3094SOL    HW121341   0.339   4.005   6.064
 3094SOL    HW221342   0.355   3.995   5.902
 3095SOL     OW21343   1.544   5.421   6.849
 3095SOL    HW121344   1.469   5.432   6.783
 3095SOL    HW221345   1.631   5.420   6.800
 3096SOL     OW21346   1.784   4.279   6.708
 3096SOL    HW121347   1.878   4.312   6.716
 3096SOL    HW221348   1.732   4.304   6.790
 3097SOL     OW21349   1.801   5.416   6.725
 3097SOL    HW121350   1.838   5.445   6.813
 3097SOL    HW221351   1.875   5.407   6.659
 3098SOL     OW21352   0.962   4.189   6.202
 3098SOL    HW121353   1.032   4.231   6.259
 3098SOL    HW221354   0.905   4.261   6.161
 3099SOL     OW21355   1.257   4.709   5.676
 3099SOL    HW121356   1.268   4.655   5.760
 3099SOL    HW221357   1.196   4.661   5.613
 3100SOL     OW21358   1.103   4.010   7.404
 3100SOL    HW121359   1.098   4.046   7.497
 3100SOL    HW221360   1.029   3.945   7.390
 3101SOL     OW21361   1.746   4.397   5.924
 3101SOL    HW121362   1.693   4.313   5.936
 3101SOL    HW221363   1.815   4.403   5.996
 3102SOL     OW21364   0.974   5.418   5.804
 3102SOL    HW121365   1.030   5.335   5.798
 3102SOL    HW221366   0.957   5.438   5.901
 3103SOL     OW21367   0.736   3.715   7.252
 3103SOL    HW121368   0.766   3.623   7.226
 3103SOL    HW221369   0.797   3.752   7.321
 3104SOL     OW21370   1.697   4.381   6.469
 3104SOL    HW121371   1.653   4.470   6.479
 3104SOL    HW221372   1.722   4.345   6.559
 3105SOL     OW21373   1.108   5.016   7.274
 3105SOL    HW121374   1.147   4.924   7.268
 3105SOL    HW221375   1.058   5.036   7.190
 3106SOL     OW21376   0.794   4.817   7.270
 3106SOL    HW121377   0.752   4.901   7.305
 3106SOL    HW221378   0.769   4.741   7.330
 3107SOL     OW21379   1.398   3.712   6.459
 3107SOL    HW121380   1.347   3.798   6.466
 3107SOL    HW221381   1.475   3.725   6.397
 3108SOL     OW21382   1.756   3.914   7.321
 3108SOL    HW121383   1.711   3.948   7.404
 3108SOL    HW221384   1.771   3.815   7.330
 3109SOL     OW21385   9.966   4.339   6.101
 3109SOL    HW121386   0.021   4.306   6.177
 3109SOL    HW221387   9.966   4.439   6.101
 3110SOL     OW21388   0.360   3.917   6.358
 3110SOL    HW121389   0.436   3.943   6.418
 3110SOL    HW221390   0.360   3.818   6.346
 3111SOL     OW21391   0.430   3.998   6.761
 3111SOL    HW121392   0.425   3.900   6.781
 3111SOL    HW221393   0.481   4.012   6.676
 3112SOL     OW21394   1.022   4.508   6.471
 3112SOL    HW121395   0.932   4.497   6.428
 3112SOL    HW221396   1.086   4.444   6.429
 3113SOL     OW21397   0.231   5.170   5.938
 3113SOL    HW121398   0.280   5.083   5.948
 3113SOL    HW221399   0.269   5.220   5.860
 3114SOL     OW21400   1.470   5.024   6.770
 3114SOL    HW121401   1.428   5.053   6.684
 3114SOL    HW221402   1.405   5.036   6.845
 3115SOL     OW21403   0.189   5.291   6.176
 3115SOL    HW121404   0.142   5.377   6.153
 3115SOL    HW221405   0.197   5.235   6.093
 3116SOL     OW21406   1.735   5.064   6.822
 3116SOL    HW121407   1.754   5.097   6.915
 3116SOL    HW221408   1.636   5.049   6.812
 3117SOL     OW21409   0.490   4.652   5.575
 3117SOL    HW121410   0.476   4.708   5.494
 3117SOL    HW221411   0.482   4.710   5.657
 3118SOL     OW21412   0.967   4.841   6.824
 3118SOL    HW121413   1.010   4.755   6.796
 3118SOL    HW221414   0.903   4.870   6.753
 3119SOL     OW21415   0.120   4.638   5.767
 3119SOL    HW121416   0.195   4.631   5.832
 3119SOL    HW221417   0.061   4.558   5.774
 3120SOL     OW21418   1.578   4.614   5.943
 3120SOL    HW121419   1.639   4.536   5.936
 3120SOL    HW221420   1.603   4.683   5.875
 3121SOL     OW21421   0.897   5.512   6.517
 3121SOL    HW121422   0.929   5.419   6.497
 3121SOL    HW221423   0.821   5.508   6.581
 3122SOL     OW21424   0.759   4.580   5.591
 3122SOL    HW121425   0.776   4.487   5.625
 3122SOL    HW221426   0.661   4.594   5.580
 3123SOL     OW21427   1.371   4.119   5.987
 3123SOL    HW121428   1.324   4.193   5.939
 3123SOL    HW221429   1.469   4.136   5.987
 3124SOL     OW21430   0.149   4.315   6.983
 3124SOL    HW121431   0.165   4.224   6.947
 3124SOL    HW221432   0.165   4.315   7.082
 3125SOL     OW21433   0.200   4.048   6.911
 3125SOL    HW121434   0.285   4.037   6.861
 3125SOL    HW221435   0.135   3.977   6.883
 3126SOL     OW21436   1.035   4.591   6.731
 3126SOL    HW121437   1.035   4.567   6.634
 3126SOL    HW221438   0.963   4.539   6.778
 3127SOL     OW21439   1.637   4.161   6.022
 3127SOL    HW121440   1.721   4.112   6.001
 3127SOL    HW221441   1.631   4.176   6.121
 3128SOL     OW21442   0.938   5.245   6.477
 3128SOL    HW121443   0.994   5.208   6.403
 3128SOL    HW221444   0.842   5.241   6.451
 3129SOL     OW21445   0.828   4.055   5.774
 3129SOL    HW121446   0.757   4.025   5.838
 3129SOL    HW221447   0.915   4.066   5.822
 3130SOL     OW21448   0.982   4.958   5.677
 3130SOL    HW121449   1.034   4.950   5.762
 3130SOL    HW221450   1.045   4.965   5.600
 3131SOL     OW21451   1.776   5.343   6.224
 3131SOL    HW121452   1.723   5.423   6.253
 3131SOL    HW221453   1.774   5.336   6.125
 3132SOL     OW21454   1.190   4.603   6.145
 3132SOL    HW121455   1.231   4.616   6.235
 3132SOL    HW221456   1.099   4.645   6.143
 3133SOL     OW21457   0.859   5.313   7.174
 3133SOL    HW121458   0.813   5.259   7.103
 3133SOL    HW221459   0.854   5.264   7.261
 3134SOL     OW21460   1.335   4.647   6.381
 3134SOL    HW121461   1.417   4.626   6.435
 3134SOL    HW221462   1.278   4.712   6.431
 3135SOL     OW21463   0.337   4.788   6.430
 3135SOL    HW121464   0.252   4.838   6.412
 3135SOL    HW221465   0.340   4.762   6.526
 3136SOL     OW21466   0.934   4.708   6.087
 3136SOL    HW121467   0.887   4.646   6.024
 3136SOL    HW221468   0.870   4.739   6.157
 3137SOL     OW21469   1.274   5.058   6.961
 3137SOL    HW121470   1.317   5.142   6.996
 3137SOL    HW221471   1.175   5.063   6.975
 3138SOL     OW21472   0.085   3.949   5.938
 3138SOL    HW121473   0.141   3.990   5.867
 3138SOL    HW221474   0.110   3.987   6.027
 3139SOL     OW21475   1.690   5.504   5.753
 3139SOL    HW121476   1.784   5.535   5.746
 3139SOL    HW221477   1.660   5.467   5.665
 3140SOL     OW21478   0.855   4.466   6.905
 3140SOL    HW121479   0.839   4.552   6.953
 3140SOL    HW221480   0.902   4.401   6.965
 3141SOL     OW21481   0.173   5.492   6.923
 3141SOL    HW121482   0.108   5.481   6.848
 3141SOL    HW221483   0.131   5.460   7.008
 3142SOL     OW21484   0.785   4.547   5.908
 3142SOL    HW121485   0.686   4.557   5.904
 3142SOL    HW221486   0.816   4.485   5.836
 3143SOL     OW21487   0.363   4.324   6.394
 3143SOL    HW121488   0.436   4.276   6.345
 3143SOL    HW221489   0.379   4.316   6.493
 3144SOL     OW21490   0.345   5.406   5.776
 3144SOL    HW121491   0.424   5.452   5.736
 3144SOL    HW221492   0.332   5.438   5.870
 3145SOL     OW21493   1.329   5.438   6.673
 3145SOL    HW121494   1.354   5.459   6.579
 3145SOL    HW221495   1.255   5.371   6.674
 3146SOL     OW21496   0.095   4.914   6.409
 3146SOL    HW121497   0.043   4.910   6.324
 3146SOL    HW221498   0.048   4.862   6.480
 3147SOL     OW21499   0.727   3.696   5.904
 3147SOL    HW121500   0.763   3.711   5.811
 3147SOL    HW221501   0.688   3.781   5.938
 3148SOL     OW21502   0.089   4.861   6.038
 3148SOL    HW121503   0.186   4.887   6.042
 3148SOL    HW221504   0.052   4.887   5.949
 3149SOL     OW21505   1.600   3.990   7.106
 3149SOL    HW121506   1.558   4.081   7.111
 3149SOL    HW221507   1.656   3.975   7.187
 3150SOL     OW21508   1.292   3.964   6.472
 3150SOL    HW121509   1.313   4.020   6.393
 3150SOL    HW221510   1.341   3.998   6.552
 3151SOL     OW21511   1.292   3.771   5.715
 3151SOL    HW121512   1.363   3.702   5.699
 3151SOL    HW221513   1.291   3.795   5.812
 3152SOL     OW21514   1.603   3.709   7.115
 3152SOL    HW121515   1.589   3.673   7.023
 3152SOL    HW221516   1.589   3.808   7.114
 3153SOL     OW21517   0.755   4.009   6.228
 3153SOL    HW121518   0.759   3.939   6.299
 3153SOL    HW221519   0.841   4.060   6.227
 3154SOL     OW21520   1.286   4.307   6.640
 3154SOL    HW121521   1.271   4.349   6.551
 3154SOL    HW221522   1.337   4.370   6.698
 3155SOL     OW21523   0.581   5.084   7.293
 3155SOL    HW121524   0.539   5.157   7.239
 3155SOL    HW221525   0.669   5.116   7.328
 3156SOL     OW21526   0.473   4.835   7.214
 3156SOL    HW121527   0.512   4.804   7.127
 3156SOL    HW221528   0.504   4.928   7.234
 3157SOL     OW21529   0.157   5.103   6.606
 3157SOL    HW121530   0.145   5.045   6.525
 3157SOL    HW221531   0.076   5.097   6.664
 3158SOL     OW21532   1.152   4.282   6.378
 3158SOL    HW121533   1.227   4.231   6.336
 3158SOL    HW221534   1.111   4.226   6.450
 3159SOL     OW21535   1.782   4.308   7.264
 3159SOL    HW121536   1.768   4.386   7.203
 3159SOL    HW221537   1.880   4.290   7.274
 3160SOL     OW21538   1.417   4.072   6.688
 3160SOL    HW121539   1.376   4.162   6.676
 3160SOL    HW221540   1.397   4.038   6.780
 3161SOL     OW21541   1.546   4.177   7.349
 3161SOL    HW121542   1.629   4.225   7.319
 3161SOL    HW221543   1.570   4.113   7.422
 3162SOL     OW21544   1.311   4.568   5.908
 3162SOL    HW121545   1.262   4.585   5.994
 3162SOL    HW221546   1.409   4.586   5.921
 3163SOL     OW21547   1.561   4.672   6.211
 3163SOL    HW121548   1.560   4.660   6.112
 3163SOL    HW221549   1.469   4.660   6.248
 3164SOL     OW21550   1.768   4.524   7.089
 3164SOL    HW121551   1.699   4.596   7.084
 3164SOL    HW221552   1.859   4.565   7.092
 3165SOL     OW21553   0.744   5.173   6.965
 3165SOL    HW121554   0.687   5.254   6.948
 3165SOL    HW221555   0.704   5.094   6.919
 3166SOL     OW21556   0.170   4.024   7.190
 3166SOL    HW121557   0.198   4.027   7.094
 3166SOL    HW221558   0.072   4.008   7.196
 3167SOL     OW21559   0.071   5.460   7.201
 3167SOL    HW121560   0.164   5.470   7.237
 3167SOL    HW221561   0.022   5.390   7.253
 3168SOL     OW21562   0.202   4.037   6.175
 3168SOL    HW121563   0.158   4.117   6.216
 3168SOL    HW221564   0.256   3.989   6.244
 3169SOL     OW21565   1.403   5.280   7.044
 3169SOL    HW121566   1.341   5.345   7.086
 3169SOL    HW221567   1.457   5.326   6.974
 3170SOL     OW21568   0.281   4.320   5.782
 3170SOL    HW121569   0.341   4.346   5.706
 3170SOL    HW221570   0.300   4.378   5.860
 3171SOL     OW21571   1.786   3.927   6.908
 3171SOL    HW121572   1.717   3.956   6.974
 3171SOL    HW221573   1.754   3.949   6.815
 3172SOL     OW21574   0.480   5.504   6.251
 3172SOL    HW121575   0.434   5.521   6.164
 3172SOL    HW221576   0.492   5.405   6.263
 3173SOL     OW21577   0.361   5.003   6.770
 3173SOL    HW121578   0.353   5.037   6.864
 3173SOL    HW221579   0.294   5.049   6.712
 3174SOL     OW21580   1.181   5.274   7.372
 3174SOL    HW121581   1.155   5.181   7.345
 3174SOL    HW221582   1.196   5.329   7.291
 3175SOL     OW21583   0.760   4.991   6.035
 3175SOL    HW121584   0.772   4.930   5.957
 3175SOL    HW221585   0.759   4.937   6.119
 3176SOL     OW21586   0.307   4.562   6.271
 3176SOL    HW121587   0.334   4.642   6.325
 3176SOL    HW221588   0.339   4.479   6.317
 3177SOL     OW21589   0.270   4.045   5.762
 3177SOL    HW121590   0.304   4.007   5.675
 3177SOL    HW221591   0.272   4.145   5.757
 3178SOL     OW21592   0.108   4.252   6.319
 3178SOL    HW121593   0.060   4.226   6.403
 3178SOL    HW221594   0.201   4.282   6.342
 3179SOL     OW21595   0.507   4.831   5.794
 3179SOL    HW121596   0.607   4.836   5.798
 3179SOL    HW221597   0.471   4.915   5.754
 3180SOL     OW21598   1.128   4.351   5.610
 3180SOL    HW121599   1.094   4.426   5.552
 3180SOL    HW221600   1.205   4.306   5.565
 3181SOL     OW21601   0.862   4.346   5.721
 3181SOL    HW121602   0.956   4.348   5.689
 3181SOL    HW221603   0.830   4.252   5.726
 3182SOL     OW21604   1.282   3.862   5.968
 3182SOL    HW121605   1.203   3.857   6.029
 3182SOL    HW221606   1.322   3.953   5.973
 3183SOL     OW21607   1.435   4.220   7.054
 3183SOL    HW121608   1.379   4.249   7.132
 3183SOL    HW221609   1.387   4.149   7.003
 3184SOL     OW21610   0.013   3.796   5.711
 3184SOL    HW121611   0.017   3.699   5.736
 3184SOL    HW221612   0.036   3.852   5.790
 3185SOL     OW21613   0.286   4.747   6.703
 3185SOL    HW121614   0.288   4.680   6.777
 3185SOL    HW221615   0.321   4.835   6.737
 3186SOL     OW21616   1.662   4.769   5.736
 3186SOL    HW121617   1.759   4.778   5.758
 3186SOL    HW221618   1.651   4.755   5.638
 3187SOL     OW21619   0.670   4.430   6.706
 3187SOL    HW121620   0.732   4.445   6.783
 3187SOL    HW221621   0.588   4.383   6.738
 3188SOL     OW21622   0.838   4.707   7.027
 3188SOL    HW121623   0.890   4.765   6.965
 3188SOL    HW221624   0.834   4.751   7.117
 3189SOL     OW21625   1.182   4.747   7.233
 3189SOL    HW121626   1.102   4.687   7.241
 3189SOL    HW221627   1.263   4.699   7.265
 3190SOL     OW21628   1.059   3.894   6.131
 3190SOL    HW121629   1.054   3.926   6.226
 3190SOL    HW221630   0.998   3.815   6.119
 3191SOL     OW21631   1.220   5.442   7.160
 3191SOL    HW121632   1.145   5.464   7.098
 3191SOL    HW221633   1.252   5.526   7.205
 3192SOL     OW21634   0.724   3.813   6.424
 3192SOL    HW121635   0.715   3.736   6.360
 3192SOL    HW221636   0.790   3.791   6.495
 3193SOL     OW21637   0.389   5.477   6.752
 3193SOL    HW121638   0.349   5.434   6.672
 3193SOL    HW221639   0.320   5.482   6.825
 3194SOL     OW21640   0.983   4.921   6.401
 3194SOL    HW121641   1.021   5.000   6.353
 3194SOL    HW221642   1.056   4.871   6.447
 3195SOL     OW21643   0.697   4.640   6.499
 3195SOL    HW121644   0.727   4.569   6.435
 3195SOL    HW221645   0.665   4.596   6.583
 3196SOL     OW21646   0.017   4.776   6.637
 3196SOL    HW121647   0.113   4.766   6.665
 3196SOL    HW221648   9.978   4.685   6.622
 3197SOL     OW21649   0.288   3.710   6.017
 3197SOL    HW121650   0.330   3.800   6.009
 3197SOL    HW221651   0.191   3.719   6.037
 3198SOL     OW21652   0.606   4.356   7.249
 3198SOL    HW121653   0.578   4.387   7.158
 3198SOL    HW221654   0.671   4.422   7.287
 3199SOL     OW21655   0.022   4.898   5.766
 3199SOL    HW121656   0.061   4.806   5.759
 3199SOL    HW221657   0.073   4.960   5.707
 3200SOL     OW21658   1.733   3.953   6.401
 3200SOL    HW121659   1.728   3.966   6.500
 3200SOL    HW221660   1.828   3.958   6.372
 3201SOL     OW21661   0.796   4.878   6.607
 3201SOL    HW121662   0.757   4.792   6.573
 3201SOL    HW221663   0.860   4.914   6.540
 3202SOL     OW21664   1.221   4.313   5.865
 3202SOL    HW121665   1.254   4.403   5.895
 3202SOL    HW221666   1.184   4.321   5.772
 3203SOL     OW21667   1.551   5.157   7.238
 3203SOL    HW121668   1.511   5.073   7.275
 3203SOL    HW221669   1.490   5.196   7.169
 3204SOL     OW21670   0.254   4.554   6.902
 3204SOL    HW121671   0.222   4.464   6.932
 3204SOL    HW221672   0.263   4.614   6.981
 3205SOL     OW21673   0.822   5.156   5.559
 3205SOL    HW121674   0.771   5.214   5.623
 3205SOL    HW221675   0.884   5.097   5.610
 3206SOL     OW21676   0.650   5.435   6.619
 3206SOL    HW121677   0.645   5.374   6.540
 3206SOL    HW221678   0.559   5.447   6.658
 3207SOL     OW21679   0.758   4.825   6.280
 3207SOL    HW121680   0.840   4.867   6.319
 3207SOL    HW221681   0.720   4.759   6.345
 3208SOL     OW21682   0.970   5.177   6.031
 3208SOL    HW121683   1.038   5.155   5.962
 3208SOL    HW221684   0.897   5.109   6.029
 3209SOL     OW21685   0.091   4.527   6.460
 3209SOL    HW121686   0.150   4.550   6.383
 3209SOL    HW221687   0.012   4.475   6.427
 3210SOL     OW21688   0.077   4.676   7.351
 3210SOL    HW121689   0.026   4.597   7.316
 3210SOL    HW221690   0.106   4.658   7.445
 3211SOL     OW21691   1.001   5.472   6.992
 3211SOL    HW121692   0.960   5.408   7.056
 3211SOL    HW221693   0.930   5.533   6.956
 3212SOL     OW21694   1.202   4.828   6.544
 3212SOL    HW121695   1.240   4.920   6.553
 3212SOL    HW221696   1.203   4.782   6.633
 3213SOL     OW21697   0.562   4.087   7.281
 3213SOL    HW121698   0.619   4.036   7.216
 3213SOL    HW221699   0.582   4.184   7.273
 3214SOL     OW21700   0.514   4.581   5.910
 3214SOL    HW121701   0.505   4.672   5.870
 3214SOL    HW221702   0.427   4.554   5.951
 3215SOL     OW21703   1.574   4.637   6.532
 3215SOL    HW121704   1.613   4.716   6.485
 3215SOL    HW221705   1.538   4.666   6.621
 3216SOL     OW21706   1.365   3.978   6.939
 3216SOL    HW121707   1.439   3.955   7.002
 3216SOL    HW221708   1.306   3.898   6.925
 3217SOL     OW21709   0.011   3.719   6.067
 3217SOL    HW121710   9.931   3.722   6.127
 3217SOL    HW221711   0.018   3.804   6.016
 3218SOL     OW21712   1.293   3.827   7.317
 3218SOL    HW121713   1.350   3.808   7.397
 3218SOL    HW221714   1.224   3.895   7.341
 3219SOL     OW21715   0.465   5.298   7.166
 3219SOL    HW121716   0.412   5.362   7.221
 3219SOL    HW221717   0.511   5.347   7.092
 3220SOL     OW21718   1.778   5.134   7.085
 3220SOL    HW121719   1.828   5.217   7.107
 3220SOL    HW221720   1.693   5.132   7.139
 3221SOL     OW21721   1.040   4.171   6.612
 3221SOL    HW121722   1.117   4.222   6.651
 3221SOL    HW221723   1.058   4.073   6.618
 3222SOL     OW21724   0.448   5.210   6.236
 3222SOL    HW121725   0.455   5.111   6.242
 3222SOL    HW221726   0.353   5.236   6.219
 3223SOL     OW21727   1.114   5.263   6.686
 3223SOL    HW121728   1.068   5.270   6.774
 3223SOL    HW221729   1.046   5.257   6.613
 3224SOL     OW21730   0.315   5.469   7.333
 3224SOL    HW121731   0.339   5.565   7.347
 3224SOL    HW221732   0.298   5.426   7.422
 3225SOL     OW21733   0.103   5.071   7.154
 3225SOL    HW121734   0.044   4.993   7.176
 3225SOL    HW221735   0.056   5.132   7.090
 3226SOL     OW21736   0.258   5.350   6.544
 3226SOL    HW121737   0.228   5.258   6.567
 3226SOL    HW221738   0.266   5.359   6.445
 3227SOL     OW21739   1.032   3.912   6.415
 3227SOL    HW121740   1.129   3.923   6.438
 3227SOL    HW221741   0.987   3.857   6.486
 3228SOL     OW21742   1.081   4.904   5.936
 3228SOL    HW121743   1.173   4.922   5.970
 3228SOL    HW221744   1.038   4.833   5.992
 3229SOL     OW21745   1.616   4.181   6.297
 3229SOL    HW121746   1.642   4.260   6.352
 3229SOL    HW221747   1.659   4.099   6.335
 3230SOL     OW21748   0.779   4.826   5.812
 3230SOL    HW121749   0.851   4.874   5.761
 3230SOL    HW221750   0.804   4.730   5.824
 3231SOL     OW21751   0.810   3.800   5.655
 3231SOL    HW121752   0.899   3.756   5.654
 3231SOL    HW221753   0.820   3.894   5.689
 3232SOL     OW21754   0.566   4.213   6.254
 3232SOL    HW121755   0.615   4.126   6.259
 3232SOL    HW221756   0.614   4.274   6.191
 3233SOL     OW21757   0.574   4.743   6.974
 3233SOL    HW121758   0.668   4.717   6.997
 3233SOL    HW221759   0.575   4.823   6.914
 3234SOL     OW21760   1.765   4.794   6.878
 3234SOL    HW121761   1.763   4.891   6.854
 3234SOL    HW221762   1.819   4.744   6.810
 3235SOL     OW21763   0.171   5.064   5.592
 3235SOL    HW121764   0.174   5.061   5.492
 3235SOL    HW221765   0.264   5.066   5.628
 3236SOL     OW21766   0.663   5.301   5.723
 3236SOL    HW121767   0.621   5.390   5.705
 3236SOL    HW221768   0.635   5.268   5.813
 3237SOL     OW21769   1.337   4.799   7.010
 3237SOL    HW121770   1.277   4.765   7.082
 3237SOL    HW221771   1.316   4.895   6.991
 3238SOL     OW21772   0.588   5.407   6.942
 3238SOL    HW121773   0.656   5.481   6.937
 3238SOL    HW221774   0.517   5.421   6.874
 3239SOL     OW21775   0.190   4.294   7.253
 3239SOL    HW121776   0.197   4.194   7.252
 3239SOL    HW221777   0.260   4.332   7.314
 3240SOL     OW21778   1.666   5.210   6.589
 3240SOL    HW121779   1.698   5.300   6.617
 3240SOL    HW221780   1.682   5.145   6.663
 3241SOL     OW21781   9.981   4.612   6.070
 3241SOL    HW121782   0.028   4.700   6.073
 3241SOL    HW221783   9.886   4.626   6.043
 3242SOL     OW21784   0.530   4.455   7.009
 3242SOL    HW121785   0.490   4.402   6.935
 3242SOL    HW221786   0.524   4.553   6.988
 3243SOL     OW21787   1.654   4.865   6.387
 3243SOL    HW121788   1.635   4.962   6.370
 3243SOL    HW221789   1.620   4.811   6.310
 3244SOL     OW21790   0.773   4.231   6.546
 3244SOL    HW121791   0.868   4.210   6.568
 3244SOL    HW221792   0.740   4.304   6.607
 3245SOL     OW21793   0.631   4.967   6.813
 3245SOL    HW121794   0.537   4.987   6.785
 3245SOL    HW221795   0.685   4.943   6.733
 3246SOL     OW21796   0.228   4.402   6.665
 3246SOL    HW121797   0.231   4.464   6.743
 3246SOL    HW221798   0.182   4.446   6.588
 3247SOL     OW21799   0.342   5.095   7.024
 3247SOL    HW121800   0.389   5.169   7.070
 3247SOL    HW221801   0.255   5.077   7.070
 3248SOL     OW21802   1.643   5.411   7.322
 3248SOL    HW121803   1.612   5.316   7.317
 3248SOL    HW221804   1.610   5.461   7.242
 3249SOL     OW21805   1.349   4.952   6.006
 3249SOL    HW121806   1.439   4.953   6.049
 3249SOL    HW221807   1.359   4.945   5.907
 3250SOL     OW21808   0.664   3.961   5.975
 3250SOL    HW121809   0.564   3.964   5.979
 3250SOL    HW221810   0.701   3.974   6.067
 3251SOL     OW21811   1.590   3.762   6.268
 3251SOL    HW121812   1.552   3.806   6.186
 3251SOL    HW221813   1.647   3.828   6.317
 3252SOL     OW21814   1.190   4.463   6.922
 3252SOL    HW121815   1.286   4.458   6.897
 3252SOL    HW221816   1.140   4.517   6.855
 3253SOL     OW21817   0.784   4.430   6.349
 3253SOL    HW121818   0.771   4.350   6.407
 3253SOL    HW221819   0.770   4.404   6.253
 3254SOL     OW21820   1.292   5.086   6.568
 3254SOL    HW121821   1.228   5.145   6.618
 3254SOL    HW221822   1.317   5.130   6.482
 3255SOL     OW21823   1.351   4.130   6.264
 3255SOL    HW121824   1.337   4.120   6.166
 3255SOL    HW221825   1.446   4.156   6.282
 3256SOL     OW21826   1.091   5.159   8.146
 3256SOL    HW121827   1.186   5.188   8.147
 3256SOL    HW221828   1.050   5.181   8.057
 3257SOL     OW21829   1.605   4.975   7.952
 3257SOL    HW121830   1.616   5.041   8.027
 3257SOL    HW221831   1.694   4.935   7.930
 3258SOL     OW21832   1.620   4.359   8.759
 3258SOL    HW121833   1.554   4.307   8.813
 3258SOL    HW221834   1.678   4.413   8.821
 3259SOL     OW21835   0.358   3.934   7.366
 3259SOL    HW121836   0.282   3.961   7.306
 3259SOL    HW221837   0.439   3.988   7.344
 3260SOL     OW21838   1.355   5.248   8.190
 3260SOL    HW121839   1.366   5.345   8.212
 3260SOL    HW221840   1.445   5.208   8.170
 3261SOL     OW21841   1.204   3.764   8.711
 3261SOL    HW121842   1.130   3.709   8.750
 3261SOL    HW221843   1.252   3.711   8.641
 3262SOL     OW21844   0.986   4.572   9.129
 3262SOL    HW121845   0.970   4.512   9.051
 3262SOL    HW221846   0.899   4.594   9.173
 3263SOL     OW21847   0.564   5.198   7.822
 3263SOL    HW121848   0.514   5.222   7.905
 3263SOL    HW221849   0.637   5.133   7.844
 3264SOL     OW21850   0.517   3.688   7.443
 3264SOL    HW121851   0.586   3.679   7.371
 3264SOL    HW221852   0.483   3.782   7.444
 3265SOL     OW21853   1.602   4.744   8.939
 3265SOL    HW121854   1.508   4.765   8.912
 3265SOL    HW221855   1.666   4.780   8.871
 3266SOL     OW21856   1.430   4.753   8.604
 3266SOL    HW121857   1.391   4.756   8.696
 3266SOL    HW221858   1.476   4.839   8.585
 3267SOL     OW21859   1.001   5.042   8.846
 3267SOL    HW121860   0.915   5.093   8.839
 3267SOL    HW221861   0.996   4.960   8.790
 3268SOL     OW21862   0.488   4.924   8.106
 3268SOL    HW121863   0.438   4.865   8.171
 3268SOL    HW221864   0.586   4.910   8.117
 3269SOL     OW21865   0.783   4.357   7.929
 3269SOL    HW121866   0.778   4.448   7.887
 3269SOL    HW221867   0.793   4.288   7.857
 3270SOL     OW21868   1.260   4.226   9.127
 3270SOL    HW121869   1.354   4.205   9.156
 3270SOL    HW221870   1.202   4.147   9.142
 3271SOL     OW21871   0.433   5.089   7.524
 3271SOL    HW121872   0.486   5.088   7.438
 3271SOL    HW221873   0.463   5.166   7.580
 3272SOL     OW21874   0.637   3.964   8.386
 3272SOL    HW121875   0.695   4.043   8.366
 3272SOL    HW221876   0.693   3.881   8.390
 3273SOL     OW21877   0.255   4.524   7.860
 3273SOL    HW121878   0.293   4.520   7.953
 3273SOL    HW221879   0.157   4.544   7.865
 3274SOL     OW21880   0.772   5.406   7.997
 3274SOL    HW121881   0.841   5.338   7.971
 3274SOL    HW221882   0.771   5.480   7.930
 3275SOL     OW21883   1.778   5.320   7.799
 3275SOL    HW121884   1.871   5.287   7.786
 3275SOL    HW221885   1.748   5.370   7.718
 3276SOL     OW21886   1.679   4.013   8.495
 3276SOL    HW121887   1.718   4.103   8.511
 3276SOL    HW221888   1.579   4.019   8.497
 3277SOL     OW21889   0.223   4.696   8.957
 3277SOL    HW121890   0.302   4.750   8.989
 3277SOL    HW221891   0.166   4.671   9.035
 3278SOL     OW21892   0.390   4.402   7.416
 3278SOL    HW121893   0.402   4.500   7.428
 3278SOL    HW221894   0.465   4.366   7.360
 3279SOL     OW21895   0.667   5.287   8.223
 3279SOL    HW121896   0.716   5.331   8.148
 3279SOL    HW221897   0.579   5.252   8.190
 3280SOL     OW21898   0.987   4.348   8.955
 3280SOL    HW121899   1.031   4.275   9.009
 3280SOL    HW221900   1.055   4.389   8.894
 3281SOL     OW21901   1.625   5.146   8.185
 3281SOL    HW121902   1.633   5.167   8.283
 3281SOL    HW221903   1.681   5.210   8.132
 3282SOL     OW21904   0.358   4.942   7.863
 3282SOL    HW121905   0.407   4.934   7.950
 3282SOL    HW221906   0.416   4.909   7.789
 3283SOL     OW21907   1.079   4.082   7.672
 3283SOL    HW121908   1.115   4.004   7.724
 3283SOL    HW221909   1.140   4.160   7.683
 3284SOL     OW21910   0.432   4.229   8.508
 3284SOL    HW121911   0.421   4.134   8.535
 3284SOL    HW221912   0.344   4.277   8.515
 3285SOL     OW21913   1.405   4.478   8.637
 3285SOL    HW121914   1.417   4.576   8.621
 3285SOL    HW221915   1.488   4.441   8.677
 3286SOL     OW21916   0.390   3.921   7.819
 3286SOL    HW121917   0.346   3.958   7.901
 3286SOL    HW221918   0.346   3.958   7.738
 3287SOL     OW21919   1.552   5.434   8.707
 3287SOL    HW121920   1.478   5.443   8.641
 3287SOL    HW221921   1.639   5.430   8.659
 3288SOL     OW21922   1.768   4.263   8.551
 3288SOL    HW121923   1.860   4.302   8.555
 3288SOL    HW221924   1.714   4.297   8.628
 3289SOL     OW21925   1.809   5.430   8.585
 3289SOL    HW121926   1.847   5.465   8.670
 3289SOL    HW221927   1.883   5.407   8.522
 3290SOL     OW21928   0.957   4.176   8.046
 3290SOL    HW121929   1.034   4.210   8.100
 3290SOL    HW221930   0.912   4.252   7.999
 3291SOL     OW21931   1.260   4.664   7.543
 3291SOL    HW121932   1.281   4.619   7.631
 3291SOL    HW221933   1.223   4.596   7.480
 3292SOL     OW21934   1.082   4.022   9.178
 3292SOL    HW121935   1.104   4.012   9.275
 3292SOL    HW221936   0.991   3.986   9.161
 3293SOL     OW21937   1.733   4.391   7.772
 3293SOL    HW121938   1.689   4.302   7.780
 3293SOL    HW221939   1.801   4.402   7.844
 3294SOL     OW21940   1.016   5.462   7.524
 3294SOL    HW121941   1.052   5.410   7.446
 3294SOL    HW221942   1.037   5.414   7.609
 3295SOL     OW21943   0.810   3.728   9.087
 3295SOL    HW121944   0.828   3.631   9.074
 3295SOL    HW221945   0.827   3.753   9.183
 3296SOL     OW21946   1.716   4.360   8.301
 3296SOL    HW121947   1.697   4.458   8.311
 3296SOL    HW221948   1.727   4.318   8.391
 3297SOL     OW21949   1.103   5.016   9.116
 3297SOL    HW121950   1.147   4.926   9.113
 3297SOL    HW221951   1.055   5.033   9.030
 3298SOL     OW21952   0.767   4.827   9.107
 3298SOL    HW121953   0.714   4.911   9.123
 3298SOL    HW221954   0.765   4.770   9.189
 3299SOL     OW21955   1.407   3.667   8.259
 3299SOL    HW121956   1.363   3.756   8.271
 3299SOL    HW221957   1.494   3.678   8.211
 3300SOL     OW21958   1.731   3.907   9.166
 3300SOL    HW121959   1.688   3.942   9.250
 3300SOL    HW221960   1.743   3.808   9.174
 3301SOL     OW21961   9.962   4.343   7.980
 3301SOL    HW121962   0.028   4.301   8.043
 3301SOL    HW221963   9.979   4.442   7.976
 3302SOL     OW21964   0.416   3.915   8.221
 3302SOL    HW121965   0.494   3.946   8.275
 3302SOL    HW221966   0.411   3.815   8.225
 3303SOL     OW21967   0.436   3.950   8.577
 3303SOL    HW121968   0.411   3.854   8.591
 3303SOL    HW221969   0.508   3.956   8.509
 3304SOL     OW21970   1.065   4.489   8.299
 3304SOL    HW121971   0.972   4.497   8.265
 3304SOL    HW221972   1.106   4.405   8.264
 3305SOL     OW21973   0.220   5.173   7.783
 3305SOL    HW121974   0.276   5.092   7.798
 3305SOL    HW221975   0.263   5.231   7.713
 3306SOL     OW21976   1.476   5.033   8.619
 3306SOL    HW121977   1.435   5.070   8.536
 3306SOL    HW221978   1.410   5.040   8.694
 3307SOL     OW21979   0.165   5.280   8.024
 3307SOL    HW121980   0.127   5.370   8.006
 3307SOL    HW221981   0.181   5.232   7.938
 3308SOL     OW21982   1.740   5.078   8.669
 3308SOL    HW121983   1.758   5.116   8.760
 3308SOL    HW221984   1.642   5.062   8.659
 3309SOL     OW21985   0.482   4.667   7.431
 3309SOL    HW121986   0.471   4.720   7.347
 3309SOL    HW221987   0.476   4.728   7.510
 3310SOL     OW21988   0.964   4.821   8.679
 3310SOL    HW121989   1.011   4.739   8.647
 3310SOL    HW221990   0.902   4.855   8.608
 3311SOL     OW21991   0.126   4.623   7.616
 3311SOL    HW121992   0.200   4.619   7.683
 3311SOL    HW221993   0.063   4.547   7.631
 3312SOL     OW21994   1.583   4.618   7.819
 3312SOL    HW121995   1.638   4.536   7.805
 3312SOL    HW221996   1.604   4.686   7.749
 3313SOL     OW21997   0.891   5.516   8.411
 3313SOL    HW121998   0.924   5.426   8.383
 3313SOL    HW221999   0.806   5.505   8.463
 3314SOL     OW22000   0.737   4.565   7.393
 3314SOL    HW122001   0.774   4.507   7.466
 3314SOL    HW222002   0.643   4.592   7.416
 3315SOL     OW22003   1.379   4.103   7.814
 3315SOL    HW122004   1.337   4.175   7.759
 3315SOL    HW222005   1.478   4.117   7.817
 3316SOL     OW22006   0.296   4.286   8.836
 3316SOL    HW122007   0.281   4.192   8.803
 3316SOL    HW222008   0.281   4.289   8.935
 3317SOL     OW22009   0.263   3.998   8.788
 3317SOL    HW122010   0.329   3.995   8.714
 3317SOL    HW222011   0.208   3.914   8.788
 3318SOL     OW22012   1.020   4.569   8.569
 3318SOL    HW122013   1.040   4.543   8.475
 3318SOL    HW222014   0.940   4.518   8.601
 3319SOL     OW22015   1.650   4.133   7.847
 3319SOL    HW122016   1.741   4.095   7.827
 3319SOL    HW222017   1.641   4.146   7.946
 3320SOL     OW22018   0.928   5.255   8.341
 3320SOL    HW122019   0.987   5.220   8.268
 3320SOL    HW222020   0.832   5.248   8.313
 3321SOL     OW22021   0.823   4.172   7.731
 3321SOL    HW122022   0.760   4.101   7.762
 3321SOL    HW222023   0.911   4.130   7.708
 3322SOL     OW22024   0.976   4.990   7.530
 3322SOL    HW122025   1.030   4.979   7.613
 3322SOL    HW222026   1.036   4.987   7.450
 3323SOL     OW22027   1.769   5.344   8.068
 3323SOL    HW122028   1.723   5.428   8.093
 3323SOL    HW222029   1.770   5.334   7.968
 3324SOL     OW22030   1.168   4.609   7.969
 3324SOL    HW122031   1.210   4.634   8.056
 3324SOL    HW222032   1.084   4.661   7.956
 3325SOL     OW22033   0.863   5.310   9.024
 3325SOL    HW122034   0.817   5.252   8.956
 3325SOL    HW222035   0.857   5.267   9.114
 3326SOL     OW22036   1.277   4.654   8.216
 3326SOL    HW122037   1.207   4.590   8.249
 3326SOL    HW222038   1.276   4.736   8.273
 3327SOL     OW22039   0.331   4.765   8.278
 3327SOL    HW122040   0.252   4.820   8.251
 3327SOL    HW222041   0.325   4.742   8.375
 3328SOL     OW22042   0.932   4.740   7.925
 3328SOL    HW122043   0.877   4.679   7.869
 3328SOL    HW222044   0.875   4.775   8.000
 3329SOL     OW22045   1.278   5.062   8.809
 3329SOL    HW122046   1.318   5.147   8.844
 3329SOL    HW222047   1.178   5.065   8.821
 3330SOL     OW22048   0.080   3.955   7.828
 3330SOL    HW122049   0.125   3.992   7.747
 3330SOL    HW222050   0.129   3.985   7.910
 3331SOL     OW22051   1.686   5.490   7.592
 3331SOL    HW122052   1.772   5.540   7.585
 3331SOL    HW222053   1.660   5.455   7.502
 3332SOL     OW22054   0.825   4.449   8.744
 3332SOL    HW122055   0.810   4.538   8.788
 3332SOL    HW222056   0.875   4.389   8.806
 3333SOL     OW22057   0.168   5.492   8.754
 3333SOL    HW122058   0.098   5.487   8.683
 3333SOL    HW222059   0.129   5.462   8.841
 3334SOL     OW22060   0.777   4.582   7.763
 3334SOL    HW122061   0.677   4.584   7.760
 3334SOL    HW222062   0.812   4.521   7.692
 3335SOL     OW22063   0.415   4.289   8.233
 3335SOL    HW122064   0.482   4.240   8.178
 3335SOL    HW222065   0.429   4.267   8.330
 3336SOL     OW22066   0.347   5.399   7.630
 3336SOL    HW122067   0.421   5.449   7.586
 3336SOL    HW222068   0.335   5.433   7.724
 3337SOL     OW22069   1.336   5.451   8.533
 3337SOL    HW122070   1.365   5.469   8.439
 3337SOL    HW222071   1.258   5.388   8.532
 3338SOL     OW22072   0.101   4.921   8.271
 3338SOL    HW122073   0.047   4.987   8.219
 3338SOL    HW222074   0.041   4.867   8.330
 3339SOL     OW22075   0.772   3.825   7.673
 3339SOL    HW122076   0.745   3.729   7.673
 3339SOL    HW222077   0.726   3.873   7.748
 3340SOL     OW22078   0.100   4.851   7.872
 3340SOL    HW122079   0.192   4.887   7.883
 3340SOL    HW222080   0.064   4.876   7.782
 3341SOL     OW22081   1.585   3.989   8.945
 3341SOL    HW122082   1.544   4.080   8.951
 3341SOL    HW222083   1.634   3.970   9.030
 3342SOL     OW22084   1.327   3.924   8.291
 3342SOL    HW122085   1.336   3.989   8.215
 3342SOL    HW222086   1.360   3.967   8.375
 3343SOL     OW22087   1.429   3.770   7.552
 3343SOL    HW122088   1.443   3.671   7.545
 3343SOL    HW222089   1.382   3.791   7.638
 3344SOL     OW22090   1.598   3.707   8.943
 3344SOL    HW122091   1.582   3.668   8.853
 3344SOL    HW222092   1.582   3.806   8.940
 3345SOL     OW22093   1.275   4.293   8.487
 3345SOL    HW122094   1.265   4.331   8.396
 3345SOL    HW222095   1.317   4.360   8.548
 3346SOL     OW22096   1.603   3.739   7.830
 3346SOL    HW122097   1.632   3.697   7.744
 3346SOL    HW222098   1.507   3.768   7.823
 3347SOL     OW22099   0.600   5.078   9.148
 3347SOL    HW122100   0.556   5.147   9.091
 3347SOL    HW222101   0.683   5.116   9.189
 3348SOL     OW22102   0.451   4.826   9.057
 3348SOL    HW122103   0.494   4.793   8.972
 3348SOL    HW222104   0.478   4.921   9.073
 3349SOL     OW22105   0.173   5.104   8.465
 3349SOL    HW122106   0.160   5.040   8.390
 3349SOL    HW222107   0.087   5.115   8.515
 3350SOL     OW22108   1.163   4.250   8.215
 3350SOL    HW122109   1.240   4.207   8.168
 3350SOL    HW222110   1.126   4.188   8.283
 3351SOL     OW22111   1.745   4.313   9.112
 3351SOL    HW122112   1.746   4.386   9.044
 3351SOL    HW222113   1.839   4.292   9.138
 3352SOL     OW22114   1.407   4.057   8.519
 3352SOL    HW122115   1.367   4.147   8.507
 3352SOL    HW222116   1.388   4.024   8.611
 3353SOL     OW22117   1.520   4.171   9.191
 3353SOL    HW122118   1.601   4.223   9.163
 3353SOL    HW222119   1.545   4.108   9.265
 3354SOL     OW22120   1.330   4.532   7.773
 3354SOL    HW122121   1.268   4.559   7.846
 3354SOL    HW222122   1.422   4.565   7.794
 3355SOL     OW22123   1.545   4.672   8.092
 3355SOL    HW122124   1.547   4.661   7.992
 3355SOL    HW222125   1.452   4.656   8.126
 3356SOL     OW22126   1.766   4.520   8.925
 3356SOL    HW122127   1.704   4.598   8.924
 3356SOL    HW222128   1.861   4.554   8.928
 3357SOL     OW22129   1.607   3.986   7.543
 3357SOL    HW122130   1.628   4.013   7.637
 3357SOL    HW222131   1.544   3.908   7.544
 3358SOL     OW22132   0.746   5.166   8.817
 3358SOL    HW122133   0.690   5.247   8.798
 3358SOL    HW222134   0.707   5.087   8.771
 3359SOL     OW22135   0.215   4.008   9.060
 3359SOL    HW122136   0.241   4.007   8.963
 3359SOL    HW222137   0.121   3.975   9.070
 3360SOL     OW22138   0.087   5.458   9.035
 3360SOL    HW122139   0.180   5.471   9.071
 3360SOL    HW222140   0.043   5.382   9.084
 3361SOL     OW22141   0.252   4.023   8.034
 3361SOL    HW122142   0.202   4.100   8.074
 3361SOL    HW222143   0.311   3.982   8.104
 3362SOL     OW22144   1.407   5.285   8.893
 3362SOL    HW122145   1.342   5.349   8.936
 3362SOL    HW222146   1.463   5.334   8.827
 3363SOL     OW22147   0.270   4.298   7.644
 3363SOL    HW122148   0.315   4.334   7.562
 3363SOL    HW222149   0.295   4.355   7.723
 3364SOL     OW22150   1.776   3.940   8.749
 3364SOL    HW122151   1.703   3.964   8.813
 3364SOL    HW222152   1.744   3.952   8.656
 3365SOL     OW22153   0.530   5.528   8.068
 3365SOL    HW122154   0.456   5.523   8.001
 3365SOL    HW222155   0.608   5.475   8.035
 3366SOL     OW22156   0.362   4.984   8.628
 3366SOL    HW122157   0.355   5.018   8.722
 3366SOL    HW222158   0.301   5.036   8.569
 3367SOL     OW22159   1.175   5.269   9.213
 3367SOL    HW122160   1.150   5.177   9.182
 3367SOL    HW222161   1.189   5.327   9.133
 3368SOL     OW22162   0.758   5.013   7.885
 3368SOL    HW122163   0.770   4.954   7.805
 3368SOL    HW222164   0.762   4.958   7.968
 3369SOL     OW22165   0.326   4.529   8.124
 3369SOL    HW122166   0.345   4.610   8.179
 3369SOL    HW222167   0.368   4.449   8.168
 3370SOL     OW22168   0.241   4.025   7.606
 3370SOL    HW122169   0.287   3.994   7.523
 3370SOL    HW222170   0.250   4.124   7.615
 3371SOL     OW22171   0.136   4.234   8.168
 3371SOL    HW122172   0.076   4.221   8.247
 3371SOL    HW222173   0.227   4.261   8.199
 3372SOL     OW22174   0.503   4.853   7.641
 3372SOL    HW122175   0.603   4.858   7.647
 3372SOL    HW222176   0.468   4.936   7.598
 3373SOL     OW22177   1.134   4.398   7.439
 3373SOL    HW122178   1.083   4.460   7.379
 3373SOL    HW222179   1.190   4.336   7.383
 3374SOL     OW22180   0.868   4.402   7.577
 3374SOL    HW122181   0.961   4.396   7.538
 3374SOL    HW222182   0.844   4.315   7.619
 3375SOL     OW22183   1.339   3.833   7.803
 3375SOL    HW122184   1.260   3.803   7.857
 3375SOL    HW222185   1.351   3.931   7.812
 3376SOL     OW22186   1.423   4.223   8.889
 3376SOL    HW122187   1.365   4.251   8.966
 3376SOL    HW222188   1.377   4.150   8.838
 3377SOL     OW22189   0.055   3.814   7.499
 3377SOL    HW122190   0.121   3.740   7.511
 3377SOL    HW222191   0.090   3.897   7.545
 3378SOL     OW22192   0.275   4.734   8.549
 3378SOL    HW122193   0.274   4.664   8.620
 3378SOL    HW222194   0.312   4.819   8.586
 3379SOL     OW22195   1.661   4.761   7.598
 3379SOL    HW122196   1.759   4.772   7.615
 3379SOL    HW222197   1.646   4.745   7.500
 3380SOL     OW22198   0.689   4.340   8.526
 3380SOL    HW122199   0.722   4.381   8.612
 3380SOL    HW222200   0.594   4.312   8.537
 3381SOL     OW22201   0.823   4.691   8.877
 3381SOL    HW122202   0.881   4.744   8.815
 3381SOL    HW222203   0.814   4.740   8.964
 3382SOL     OW22204   1.186   4.753   9.080
 3382SOL    HW122205   1.104   4.697   9.093
 3382SOL    HW222206   1.266   4.702   9.110
 3383SOL     OW22207   1.218   5.444   9.006
 3383SOL    HW122208   1.143   5.460   8.942
 3383SOL    HW222209   1.252   5.531   9.041
 3384SOL     OW22210   0.388   5.476   8.592
 3384SOL    HW122211   0.348   5.433   8.511
 3384SOL    HW222212   0.318   5.482   8.663
 3385SOL     OW22213   1.002   4.932   8.271
 3385SOL    HW122214   1.035   5.013   8.223
 3385SOL    HW222215   1.078   4.887   8.317
 3386SOL     OW22216   0.690   4.665   8.307
 3386SOL    HW122217   0.735   4.582   8.274
 3386SOL    HW222218   0.604   4.641   8.352
 3387SOL     OW22219   0.002   4.781   8.497
 3387SOL    HW122220   0.099   4.764   8.509
 3387SOL    HW222221   9.950   4.703   8.532
 3388SOL     OW22222   0.278   3.666   7.781
 3388SOL    HW122223   0.332   3.749   7.796
 3388SOL    HW222224   0.185   3.680   7.815
 3389SOL     OW22225   0.673   4.341   9.084
 3389SOL    HW122226   0.617   4.387   9.014
 3389SOL    HW222227   0.769   4.347   9.060
 3390SOL     OW22228   0.033   4.887   7.606
 3390SOL    HW122229   0.071   4.795   7.596
 3390SOL    HW222230   0.080   4.949   7.543
 3391SOL     OW22231   1.764   3.938   8.239
 3391SOL    HW122232   1.735   3.952   8.334
 3391SOL    HW222233   1.863   3.923   8.236
 3392SOL     OW22234   0.801   4.875   8.459
 3392SOL    HW122235   0.761   4.796   8.414
 3392SOL    HW222236   0.871   4.915   8.400
 3393SOL     OW22237   1.247   4.298   7.669
 3393SOL    HW122238   1.281   4.378   7.719
 3393SOL    HW222239   1.206   4.328   7.583
 3394SOL     OW22240   1.556   5.153   9.081
 3394SOL    HW122241   1.515   5.072   9.123
 3394SOL    HW222242   1.493   5.192   9.014
 3395SOL     OW22243   0.216   4.527   8.742
 3395SOL    HW122244   0.242   4.436   8.773
 3395SOL    HW222245   0.222   4.591   8.819
 3396SOL     OW22246   0.811   5.175   7.409
 3396SOL    HW122247   0.761   5.228   7.477
 3396SOL    HW222248   0.875   5.114   7.455
 3397SOL     OW22249   0.639   5.428   8.471
 3397SOL    HW122250   0.633   5.371   8.389
 3397SOL    HW222251   0.547   5.444   8.508
 3398SOL     OW22252   0.776   4.854   8.126
 3398SOL    HW122253   0.855   4.895   8.171
 3398SOL    HW222254   0.738   4.782   8.184
 3399SOL     OW22255   0.954   5.212   7.913
 3399SOL    HW122256   1.018   5.223   7.837
 3399SOL    HW222257   0.890   5.138   7.891
 3400SOL     OW22258   0.102   4.520   8.297
 3400SOL    HW122259   0.166   4.526   8.220
 3400SOL    HW222260   0.010   4.542   8.265
 3401SOL     OW22261   0.068   4.631   9.178
 3401SOL    HW122262   0.016   4.547   9.166
 3401SOL    HW222263   0.113   4.630   9.268
 3402SOL     OW22264   1.000   5.460   8.830
 3402SOL    HW122265   0.960   5.399   8.898
 3402SOL    HW222266   0.929   5.519   8.792
 3403SOL     OW22267   1.242   4.851   8.404
 3403SOL    HW122268   1.263   4.949   8.410
 3403SOL    HW222269   1.289   4.803   8.478
 3404SOL     OW22270   0.601   4.080   9.134
 3404SOL    HW122271   0.654   4.027   9.068
 3404SOL    HW222272   0.625   4.177   9.126
 3405SOL     OW22273   0.507   4.602   7.761
 3405SOL    HW122274   0.493   4.693   7.722
 3405SOL    HW222275   0.421   4.569   7.800
 3406SOL     OW22276   1.671   4.628   8.396
 3406SOL    HW122277   1.669   4.711   8.340
 3406SOL    HW222278   1.596   4.632   8.463
 3407SOL     OW22279   1.352   3.980   8.775
 3407SOL    HW122280   1.421   3.952   8.842
 3407SOL    HW222281   1.290   3.904   8.757
 3408SOL     OW22282   0.024   3.695   7.882
 3408SOL    HW122283   9.962   3.654   7.815
 3408SOL    HW222284   0.024   3.794   7.871
 3409SOL     OW22285   1.281   3.825   9.145
 3409SOL    HW122286   1.323   3.818   9.236
 3409SOL    HW222287   1.213   3.898   9.146
 3410SOL     OW22288   0.474   5.287   9.014
 3410SOL    HW122289   0.423   5.353   9.068
 3410SOL    HW222290   0.518   5.333   8.938
 3411SOL     OW22291   1.787   5.152   8.931
 3411SOL    HW122292   1.839   5.233   8.958
 3411SOL    HW222293   1.703   5.146   8.986
 3412SOL     OW22294   1.059   4.115   8.431
 3412SOL    HW122295   1.122   4.174   8.482
 3412SOL    HW222296   1.086   4.020   8.442
 3413SOL     OW22297   0.435   5.199   8.086
 3413SOL    HW122298   0.441   5.099   8.095
 3413SOL    HW222299   0.340   5.226   8.070
 3414SOL     OW22300   1.112   5.285   8.545
 3414SOL    HW122301   1.069   5.302   8.634
 3414SOL    HW222302   1.041   5.271   8.476
 3415SOL     OW22303   0.334   5.480   9.164
 3415SOL    HW122304   0.369   5.574   9.164
 3415SOL    HW222305   0.320   5.450   9.258
 3416SOL     OW22306   0.102   5.056   9.000
 3416SOL    HW122307   0.042   4.987   9.038
 3416SOL    HW222308   0.052   5.112   8.934
 3417SOL     OW22309   0.262   5.353   8.383
 3417SOL    HW122310   0.234   5.261   8.412
 3417SOL    HW222311   0.272   5.356   8.284
 3418SOL     OW22312   1.079   4.933   7.781
 3418SOL    HW122313   1.171   4.947   7.817
 3418SOL    HW222314   1.032   4.863   7.835
 3419SOL     OW22315   1.636   4.158   8.124
 3419SOL    HW122316   1.660   4.238   8.178
 3419SOL    HW222317   1.684   4.078   8.160
 3420SOL     OW22318   0.774   4.853   7.657
 3420SOL    HW122319   0.845   4.901   7.605
 3420SOL    HW222320   0.806   4.761   7.679
 3421SOL     OW22321   0.908   3.815   7.436
 3421SOL    HW122322   0.971   3.740   7.457
 3421SOL    HW222323   0.854   3.837   7.518
 3422SOL     OW22324   0.642   4.176   8.098
 3422SOL    HW122325   0.709   4.159   8.171
 3422SOL    HW222326   0.680   4.242   8.033
 3423SOL     OW22327   0.561   4.735   8.822
 3423SOL    HW122328   0.654   4.707   8.845
 3423SOL    HW222329   0.565   4.817   8.764
 3424SOL     OW22330   1.780   4.818   8.749
 3424SOL    HW122331   1.772   4.913   8.720
 3424SOL    HW222332   1.831   4.766   8.681
 3425SOL     OW22333   0.172   5.056   7.432
 3425SOL    HW122334   0.169   5.058   7.332
 3425SOL    HW222335   0.266   5.067   7.463
 3426SOL     OW22336   0.650   5.305   7.584
 3426SOL    HW122337   0.614   5.396   7.566
 3426SOL    HW222338   0.624   5.277   7.677
 3427SOL     OW22339   1.343   4.805   8.858
 3427SOL    HW122340   1.283   4.769   8.929
 3427SOL    HW222341   1.322   4.901   8.840
 3428SOL     OW22342   0.589   5.399   8.788
 3428SOL    HW122343   0.656   5.473   8.780
 3428SOL    HW222344   0.517   5.411   8.719
 3429SOL     OW22345   0.258   4.277   9.105
 3429SOL    HW122346   0.255   4.177   9.111
 3429SOL    HW222347   0.329   4.312   9.165
 3430SOL     OW22348   1.673   5.225   8.439
 3430SOL    HW122349   1.704   5.317   8.465
 3430SOL    HW222350   1.694   5.161   8.513
 3431SOL     OW22351   9.991   4.611   7.935
 3431SOL    HW122352   0.035   4.701   7.928
 3431SOL    HW222353   9.895   4.620   7.909
 3432SOL     OW22354   0.519   4.459   8.896
 3432SOL    HW122355   0.444   4.404   8.858
 3432SOL    HW222356   0.514   4.552   8.861
 3433SOL     OW22357   1.656   4.870   8.247
 3433SOL    HW122358   1.635   4.966   8.228
 3433SOL    HW222359   1.610   4.812   8.180
 3434SOL     OW22360   0.802   4.186   8.340
 3434SOL    HW122361   0.894   4.159   8.367
 3434SOL    HW222362   0.762   4.242   8.413
 3435SOL     OW22363   0.633   4.960   8.665
 3435SOL    HW122364   0.539   4.978   8.637
 3435SOL    HW222365   0.689   4.939   8.585
 3436SOL     OW22366   0.199   4.374   8.505
 3436SOL    HW122367   0.204   4.432   8.586
 3436SOL    HW222368   0.163   4.427   8.428
 3437SOL     OW22369   0.347   5.080   8.881
 3437SOL    HW122370   0.393   5.157   8.925
 3437SOL    HW222371   0.257   5.067   8.923
 3438SOL     OW22372   1.656   5.399   9.165
 3438SOL    HW122373   1.619   5.307   9.152
 3438SOL    HW222374   1.628   5.458   9.089
 3439SOL     OW22375   1.346   4.951   7.857
 3439SOL    HW122376   1.436   4.955   7.901
 3439SOL    HW222377   1.357   4.926   7.761
 3440SOL     OW22378   0.652   3.991   7.868
 3440SOL    HW122379   0.559   3.961   7.847
 3440SOL    HW222380   0.653   4.036   7.957
 3441SOL     OW22381   1.632   3.725   8.109
 3441SOL    HW122382   1.619   3.742   8.011
 3441SOL    HW222383   1.679   3.803   8.150
 3442SOL     OW22384   1.160   4.457   8.779
 3442SOL    HW122385   1.258   4.454   8.758
 3442SOL    HW222386   1.112   4.505   8.705
 3443SOL     OW22387   0.808   4.439   8.202
 3443SOL    HW122388   0.801   4.353   8.253
 3443SOL    HW222389   0.798   4.420   8.104
 3444SOL     OW22390   1.297   5.117   8.425
 3444SOL    HW122391   1.231   5.172   8.476
 3444SOL    HW222392   1.318   5.162   8.338
 3445SOL     OW22393   1.367   4.116   8.093
 3445SOL    HW122394   1.353   4.108   7.994
 3445SOL    HW222395   1.463   4.136   8.112
 3446SOL     OW22396   1.142   5.134   0.016
 3446SOL    HW122397   1.211   5.063   0.001
 3446SOL    HW222398   1.090   5.148   9.931
 3447SOL     OW22399   1.624   4.878   9.878
 3447SOL    HW122400   1.660   4.943   9.946
 3447SOL    HW222401   1.697   4.854   9.813
 3448SOL     OW22402   0.408   3.918   9.225
 3448SOL    HW122403   0.329   3.944   9.169
 3448SOL    HW222404   0.486   3.977   9.202
 3449SOL     OW22405   0.577   5.169   9.600
 3449SOL    HW122406   0.523   5.194   9.680
 3449SOL    HW222407   0.658   5.118   9.629
 3450SOL     OW22408   0.588   3.748   9.357
 3450SOL    HW122409   0.680   3.785   9.351
 3450SOL    HW222410   0.524   3.812   9.314
 3451SOL     OW22411   0.492   4.937   9.931
 3451SOL    HW122412   0.473   4.963   0.026
 3451SOL    HW222413   0.587   4.908   9.923
 3452SOL     OW22414   0.746   4.325   9.783
 3452SOL    HW122415   0.761   4.404   9.723
 3452SOL    HW222416   0.707   4.250   9.730
 3453SOL     OW22417   0.441   5.071   9.374
 3453SOL    HW122418   0.499   5.080   9.293
 3453SOL    HW222419   0.481   5.124   9.449
 3454SOL     OW22420   0.288   4.464   9.695
 3454SOL    HW122421   0.315   4.418   9.780
 3454SOL    HW222422   0.192   4.491   9.701
 3455SOL     OW22423   0.989   5.449   9.845
 3455SOL    HW122424   0.999   5.351   9.827
 3455SOL    HW222425   0.921   5.488   9.783
 3456SOL     OW22426   1.759   5.274   9.608
 3456SOL    HW122427   1.856   5.252   9.595
 3456SOL    HW222428   1.732   5.344   9.543
 3457SOL     OW22429   1.046   4.016   9.679
 3457SOL    HW122430   1.032   4.090   9.744
 3457SOL    HW222431   1.074   3.933   9.728
 3458SOL     OW22432   0.457   4.388   9.263
 3458SOL    HW122433   0.457   4.488   9.269
 3458SOL    HW222434   0.539   4.359   9.213
 3459SOL     OW22435   1.777   5.060   0.048
 3459SOL    HW122436   1.765   5.093   0.142
 3459SOL    HW222437   1.761   5.136   9.984
 3460SOL     OW22438   0.325   4.928   9.712
 3460SOL    HW122439   0.381   4.936   9.794
 3460SOL    HW222440   0.382   4.899   9.635
 3461SOL     OW22441   1.156   3.970   9.429
 3461SOL    HW122442   1.227   3.900   9.433
 3461SOL    HW222443   1.127   3.994   9.521
 3462SOL     OW22444   0.403   3.963   9.740
 3462SOL    HW122445   0.313   4.008   9.734
 3462SOL    HW222446   0.395   3.869   9.707
 3463SOL     OW22447   1.835   5.456   0.291
 3463SOL    HW122448   1.836   5.527   0.362
 3463SOL    HW222449   1.930   5.434   0.266
 3464SOL     OW22450   0.979   4.210   9.864
 3464SOL    HW122451   1.041   4.269   9.916
 3464SOL    HW222452   0.898   4.262   9.838
 3465SOL     OW22453   1.265   4.671   9.407
 3465SOL    HW122454   1.275   4.631   9.498
 3465SOL    HW222455   1.224   4.603   9.345
 3466SOL     OW22456   1.757   4.363   9.579
 3466SOL    HW122457   1.698   4.284   9.560
 3466SOL    HW222458   1.816   4.342   9.656
 3467SOL     OW22459   1.013   5.436   9.371
 3467SOL    HW122460   1.057   5.378   9.302
 3467SOL    HW222461   1.023   5.395   9.461
 3468SOL     OW22462   0.024   4.276   9.780
 3468SOL    HW122463   0.047   4.272   9.877
 3468SOL    HW222464   0.016   4.372   9.752
 3469SOL     OW22465   0.131   5.147   9.667
 3469SOL    HW122466   0.191   5.068   9.672
 3469SOL    HW222467   0.154   5.201   9.586
 3470SOL     OW22468   0.190   5.251   9.914
 3470SOL    HW122469   0.120   5.240   9.985
 3470SOL    HW222470   0.153   5.220   9.827
 3471SOL     OW22471   0.491   4.661   9.273
 3471SOL    HW122472   0.471   4.714   9.191
 3471SOL    HW222473   0.479   4.719   9.354
 3472SOL     OW22474   0.163   4.608   9.439
 3472SOL    HW122475   0.241   4.588   9.499
 3472SOL    HW222476   0.098   4.532   9.443
 3473SOL     OW22477   1.593   4.575   9.638
 3473SOL    HW122478   1.651   4.498   9.610
 3473SOL    HW222479   1.608   4.652   9.575
 3474SOL     OW22480   0.760   4.597   9.290
 3474SOL    HW122481   0.784   4.506   9.325
 3474SOL    HW222482   0.661   4.605   9.282
 3475SOL     OW22483   1.364   4.115   9.660
 3475SOL    HW122484   1.315   4.183   9.604
 3475SOL    HW222485   1.462   4.124   9.644
 3476SOL     OW22486   1.639   4.113   9.651
 3476SOL    HW122487   1.734   4.083   9.641
 3476SOL    HW222488   1.625   4.147   9.744
 3477SOL     OW22489   0.847   4.084   9.500
 3477SOL    HW122490   0.765   4.078   9.558
 3477SOL    HW222491   0.928   4.062   9.555
 3478SOL     OW22492   0.979   4.992   9.375
 3478SOL    HW122493   1.037   4.970   9.453
 3478SOL    HW222494   1.035   4.991   9.291
 3479SOL     OW22495   1.741   5.270   9.880
 3479SOL    HW122496   1.703   5.358   9.907
 3479SOL    HW222497   1.737   5.260   9.781
 3480SOL     OW22498   1.188   4.646   9.882
 3480SOL    HW122499   1.245   4.728   9.872
 3480SOL    HW222500   1.098   4.664   9.843
 3481SOL     OW22501   1.523   4.676   0.055
 3481SOL    HW122502   1.429   4.673   0.091
 3481SOL    HW222503   1.533   4.757   9.997
 3482SOL     OW22504   0.947   4.710   9.761
 3482SOL    HW122505   0.897   4.644   9.706
 3482SOL    HW222506   0.883   4.761   9.819
 3483SOL     OW22507   0.139   4.038   9.689
 3483SOL    HW122508   0.158   4.041   9.590
 3483SOL    HW222509   0.092   4.121   9.717
 3484SOL     OW22510   1.694   5.477   9.429
 3484SOL    HW122511   1.780   5.528   9.425
 3484SOL    HW222512   1.670   5.445   9.337
 3485SOL     OW22513   0.794   4.534   9.608
 3485SOL    HW122514   0.695   4.551   9.599
 3485SOL    HW222515   0.824   4.475   9.533
 3486SOL     OW22516   0.341   5.457   9.442
 3486SOL    HW122517   0.428   5.503   9.426
 3486SOL    HW222518   0.312   5.472   9.536
 3487SOL     OW22519   0.835   3.678   9.636
 3487SOL    HW122520   0.798   3.616   9.567
 3487SOL    HW222521   0.780   3.762   9.638
 3488SOL     OW22522   0.076   4.818   9.754
 3488SOL    HW122523   0.168   4.855   9.762
 3488SOL    HW222524   0.037   4.843   9.666
 3489SOL     OW22525   1.379   3.782   9.411
 3489SOL    HW122526   1.380   3.683   9.394
 3489SOL    HW222527   1.371   3.799   9.510
 3490SOL     OW22528   0.788   4.023   9.938
 3490SOL    HW122529   0.808   3.960   0.013
 3490SOL    HW222530   0.867   4.080   9.920
 3491SOL     OW22531   1.611   3.742   9.676
 3491SOL    HW122532   1.629   3.703   9.586
 3491SOL    HW222533   1.518   3.779   9.678
 3492SOL     OW22534   1.319   4.552   9.649
 3492SOL    HW122535   1.277   4.583   9.735
 3492SOL    HW222536   1.418   4.564   9.654
 3493SOL     OW22537   1.660   4.508   9.892
 3493SOL    HW122538   1.630   4.539   9.802
 3493SOL    HW222539   1.615   4.563   9.963
 3494SOL     OW22540   1.583   3.985   9.389
 3494SOL    HW122541   1.601   4.020   9.481
 3494SOL    HW222542   1.515   3.912   9.394
 3495SOL     OW22543   0.292   4.294   9.465
 3495SOL    HW122544   0.359   4.326   9.398
 3495SOL    HW222545   0.305   4.343   9.551
 3496SOL     OW22546   0.377   5.446   9.953
 3496SOL    HW122547   0.294   5.390   9.958
 3496SOL    HW222548   0.455   5.389   9.927
 3497SOL     OW22549   0.785   5.011   9.694
 3497SOL    HW122550   0.795   4.949   9.617
 3497SOL    HW222551   0.778   4.959   9.779
 3498SOL     OW22552   0.237   4.029   9.425
 3498SOL    HW122553   0.309   3.984   9.372
 3498SOL    HW222554   0.260   4.126   9.437
 3499SOL     OW22555   0.096   4.266   0.044
 3499SOL    HW122556   0.062   4.252   0.137
 3499SOL    HW222557   0.189   4.303   0.048
 3500SOL     OW22558   0.501   4.837   9.498
 3500SOL    HW122559   0.601   4.840   9.499
 3500SOL    HW222560   0.467   4.919   9.451
 3501SOL     OW22561   1.135   4.413   9.288
 3501SOL    HW122562   1.085   4.478   9.231
 3501SOL    HW222563   1.189   4.351   9.230
 3502SOL     OW22564   0.875   4.360   9.406
 3502SOL    HW122565   0.969   4.370   9.375
 3502SOL    HW222566   0.857   4.264   9.428
 3503SOL     OW22567   1.355   3.845   9.671
 3503SOL    HW122568   1.281   3.814   9.731
 3503SOL    HW222569   1.357   3.945   9.671
 3504SOL     OW22570   0.037   3.842   9.389
 3504SOL    HW122571   0.083   3.753   9.385
 3504SOL    HW222572   0.105   3.914   9.400
 3505SOL     OW22573   1.652   4.749   9.438
 3505SOL    HW122574   1.748   4.778   9.446
 3505SOL    HW222575   1.631   4.730   9.342
 3506SOL     OW22576   1.141   3.804   9.832
 3506SOL    HW122577   1.152   3.855   9.917
 3506SOL    HW222578   1.085   3.723   9.848
 3507SOL     OW22579   0.324   3.704   9.686
 3507SOL    HW122580   0.347   3.662   9.774
 3507SOL    HW222581   0.226   3.724   9.684
 3508SOL     OW22582   0.067   4.864   9.466
 3508SOL    HW122583   0.111   4.775   9.452
 3508SOL    HW222584   0.106   4.930   9.403
 3509SOL     OW22585   1.256   4.321   9.521
 3509SOL    HW122586   1.276   4.403   9.573
 3509SOL    HW222587   1.208   4.345   9.437
 3510SOL     OW22588   0.816   5.192   9.272
 3510SOL    HW122589   0.790   5.261   9.339
 3510SOL    HW222590   0.878   5.126   9.314
 3511SOL     OW22591   0.764   4.858   9.926
 3511SOL    HW122592   0.768   4.938   9.985
 3511SOL    HW222593   0.762   4.775   9.982
 3512SOL     OW22594   1.007   5.177   9.776
 3512SOL    HW122595   1.065   5.190   9.696
 3512SOL    HW222596   0.926   5.124   9.751
 3513SOL     OW22597   0.525   4.580   9.600
 3513SOL    HW122598   0.504   4.673   9.572
 3513SOL    HW222599   0.443   4.538   9.639
 3514SOL     OW22600   0.057   3.767   9.685
 3514SOL    HW122601   9.999   3.763   9.604
 3514SOL    HW222602   0.071   3.863   9.711
 3515SOL     OW22603   0.450   5.196   9.841
 3515SOL    HW122604   0.481   5.109   9.878
 3515SOL    HW222605   0.355   5.212   9.865
 3516SOL     OW22606   1.097   4.896   9.612
 3516SOL    HW122607   1.187   4.900   9.655
 3516SOL    HW222608   1.040   4.829   9.660
 3517SOL     OW22609   1.618   4.234   9.905
 3517SOL    HW122610   1.625   4.333   9.894
 3517SOL    HW222611   1.688   4.203   9.969
 3518SOL     OW22612   0.777   4.837   9.473
 3518SOL    HW122613   0.846   4.895   9.431
 3518SOL    HW222614   0.796   4.741   9.450
 3519SOL     OW22615   0.847   3.840   9.340
 3519SOL    HW122616   0.919   3.775   9.364
 3519SOL    HW222617   0.860   3.925   9.392
 3520SOL     OW22618   0.585   4.234   9.986
 3520SOL    HW122619   0.628   4.148   0.013
 3520SOL    HW222620   0.643   4.282   9.921
 3521SOL     OW22621   0.183   5.042   9.281
 3521SOL    HW122622   0.181   5.037   9.182
 3521SOL    HW222623   0.277   5.056   9.312
 3522SOL     OW22624   0.705   5.366   9.459
 3522SOL    HW122625   0.645   5.438   9.424
 3522SOL    HW222626   0.651   5.301   9.513
 3523SOL     OW22627   0.023   4.549   9.720
 3523SOL    HW122628   0.050   4.642   9.747
 3523SOL    HW222629   9.928   4.550   9.690
 3524SOL     OW22630   1.360   4.860   9.740
 3524SOL    HW122631   1.440   4.879   9.797
 3524SOL    HW222632   1.385   4.872   9.644
 3525SOL     OW22633   0.656   4.070   9.701
 3525SOL    HW122634   0.561   4.039   9.705
 3525SOL    HW222635   0.703   4.044   9.785
 3526SOL     OW22636   1.705   3.663   9.933
 3526SOL    HW122637   1.641   3.683   9.859
 3526SOL    HW222638   1.785   3.722   9.926
 3527SOL     OW22639   1.337   4.193   9.927
 3527SOL    HW122640   1.324   4.158   9.834
 3527SOL    HW222641   1.435   4.204   9.944
 3528SOL     OW22642   1.073   7.009   0.745
 3528SOL    HW122643   1.170   7.034   0.745
 3528SOL    HW222644   1.034   7.027   0.655
 3529SOL     OW22645   1.623   6.815   0.581
 3529SOL    HW122646   1.635   6.870   0.664
 3529SOL    HW222647   1.711   6.774   0.555
 3530SOL     OW22648   1.643   6.181   1.405
 3530SOL    HW122649   1.576   6.131   1.460
 3530SOL    HW222650   1.696   6.242   1.464
 3531SOL     OW22651   0.445   5.701   0.015
 3531SOL    HW122652   0.413   5.608   9.996
 3531SOL    HW222653   0.452   5.752   9.929
 3532SOL     OW22654   1.341   7.086   0.777
 3532SOL    HW122655   1.352   7.183   0.795
 3532SOL    HW222656   1.430   7.047   0.752
 3533SOL     OW22657   1.175   5.623   1.321
 3533SOL    HW122658   1.104   5.566   1.363
 3533SOL    HW222659   1.230   5.568   1.259
 3534SOL     OW22660   1.012   6.412   1.701
 3534SOL    HW122661   0.999   6.336   1.636
 3534SOL    HW222662   0.928   6.466   1.707
 3535SOL     OW22663   0.596   7.024   0.390
 3535SOL    HW122664   0.604   7.095   0.461
 3535SOL    HW222665   0.648   6.944   0.418
 3536SOL     OW22666   0.628   5.564   0.187
 3536SOL    HW122667   0.720   5.603   0.178
 3536SOL    HW222668   0.564   5.618   0.132
 3537SOL     OW22669   1.649   6.612   1.556
 3537SOL    HW122670   1.553   6.594   1.534
 3537SOL    HW222671   1.692   6.658   1.479
 3538SOL     OW22672   1.509   6.571   1.267
 3538SOL    HW122673   1.424   6.617   1.294
 3538SOL    HW222674   1.585   6.635   1.274
 3539SOL     OW22675   0.899   6.842   1.435
 3539SOL    HW122676   0.833   6.917   1.428
 3539SOL    HW222677   0.971   6.856   1.367
 3540SOL     OW22678   0.480   6.815   0.717
 3540SOL    HW122679   0.440   6.760   0.789
 3540SOL    HW222680   0.578   6.797   0.711
 3541SOL     OW22681   0.768   6.192   0.559
 3541SOL    HW122682   0.788   6.280   0.516
 3541SOL    HW222683   0.763   6.121   0.489
 3542SOL     OW22684   1.281   6.086   1.773
 3542SOL    HW122685   1.373   6.064   1.804
 3542SOL    HW222686   1.226   6.002   1.772
 3543SOL     OW22687   0.403   6.953   0.179
 3543SOL    HW122688   0.367   7.047   0.177
 3543SOL    HW222689   0.471   6.945   0.251
 3544SOL     OW22690   0.597   5.849   1.026
 3544SOL    HW122691   0.657   5.929   1.019
 3544SOL    HW222692   0.640   5.771   0.980
 3545SOL     OW22693   0.306   6.312   0.437
 3545SOL    HW122694   0.320   6.313   0.536
 3545SOL    HW222695   0.217   6.351   0.416
 3546SOL     OW22696   0.716   7.185   0.600
 3546SOL    HW122697   0.802   7.142   0.570
 3546SOL    HW222698   0.707   7.274   0.557
 3547SOL     OW22699   1.757   7.119   0.416
 3547SOL    HW122700   1.847   7.080   0.395
 3547SOL    HW222701   1.725   7.172   0.337
 3548SOL     OW22702   1.685   5.847   1.141
 3548SOL    HW122703   1.722   5.939   1.155
 3548SOL    HW222704   1.585   5.851   1.146
 3549SOL     OW22705   1.026   5.865   0.317
 3549SOL    HW122706   1.081   5.948   0.322
 3549SOL    HW222707   1.039   5.812   0.400
 3550SOL     OW22708   0.229   6.515   1.592
 3550SOL    HW122709   0.308   6.568   1.625
 3550SOL    HW222710   0.168   6.496   1.669
 3551SOL     OW22711   0.382   6.221   0.003
 3551SOL    HW122712   0.419   6.313   0.014
 3551SOL    HW222713   0.455   6.158   9.975
 3552SOL     OW22714   0.655   7.124   0.862
 3552SOL    HW122715   0.686   7.149   0.771
 3552SOL    HW222716   0.558   7.099   0.859
 3553SOL     OW22717   0.990   6.192   1.540
 3553SOL    HW122718   1.007   6.102   1.582
 3553SOL    HW222719   1.067   6.217   1.483
 3554SOL     OW22720   1.610   6.968   0.819
 3554SOL    HW122721   1.592   7.006   0.910
 3554SOL    HW222722   1.667   7.032   0.767
 3555SOL     OW22723   0.393   6.789   0.449
 3555SOL    HW122724   0.421   6.795   0.545
 3555SOL    HW222725   0.315   6.728   0.441
 3556SOL     OW22726   1.174   5.852   0.063
 3556SOL    HW122727   1.241   5.780   0.078
 3556SOL    HW222728   1.111   5.856   0.141
 3557SOL     OW22729   0.429   6.056   1.300
 3557SOL    HW122730   0.434   5.957   1.291
 3557SOL    HW222731   0.352   6.091   1.246
 3558SOL     OW22732   1.440   6.306   1.271
 3558SOL    HW122733   1.461   6.404   1.267
 3558SOL    HW222734   1.517   6.258   1.314
 3559SOL     OW22735   0.365   5.795   0.461
 3559SOL    HW122736   0.306   5.844   0.525
 3559SOL    HW222737   0.334   5.813   0.367
 3560SOL     OW22738   1.787   6.095   1.192
 3560SOL    HW122739   1.874   6.145   1.187
 3560SOL    HW222740   1.736   6.125   1.272
 3561SOL     OW22741   0.956   6.008   0.652
 3561SOL    HW122742   1.022   6.038   0.721
 3561SOL    HW222743   0.904   6.087   0.619
 3562SOL     OW22744   1.220   6.514   0.186
 3562SOL    HW122745   1.249   6.439   0.245
 3562SOL    HW222746   1.120   6.521   0.188
 3563SOL     OW22747   1.111   5.867   1.780
 3563SOL    HW122748   1.145   5.837   1.869
 3563SOL    HW222749   1.015   5.843   1.771
 3564SOL     OW22750   1.760   6.180   0.383
 3564SOL    HW122751   1.796   6.103   0.331
 3564SOL    HW222752   1.815   6.193   0.466
 3565SOL     OW22753   0.967   7.349   0.123
 3565SOL    HW122754   0.964   7.319   0.028
 3565SOL    HW222755   0.994   7.272   0.181
 3566SOL     OW22756   0.812   5.573   1.726
 3566SOL    HW122757   0.825   5.477   1.702
 3566SOL    HW222758   0.809   5.582   1.826
 3567SOL     OW22759   1.738   6.202   0.946
 3567SOL    HW122760   1.711   6.297   0.958
 3567SOL    HW222761   1.748   6.158   1.035
 3568SOL     OW22762   0.977   6.786   1.699
 3568SOL    HW122763   1.067   6.743   1.694
 3568SOL    HW222764   0.949   6.817   1.608
 3569SOL     OW22765   0.798   6.575   1.728
 3569SOL    HW122766   0.848   6.660   1.743
 3569SOL    HW222767   0.760   6.542   1.814
 3570SOL     OW22768   1.357   5.516   0.904
 3570SOL    HW122769   1.314   5.606   0.913
 3570SOL    HW222770   1.445   5.525   0.857
 3571SOL     OW22771   1.757   5.769   1.823
 3571SOL    HW122772   1.702   5.804   1.898
 3571SOL    HW222773   1.804   5.686   1.852
 3572SOL     OW22774   9.952   6.129   0.553
 3572SOL    HW122775   0.005   6.127   0.638
 3572SOL    HW222776   9.904   6.217   0.546
 3573SOL     OW22777   0.399   5.795   0.832
 3573SOL    HW122778   0.465   5.810   0.905
 3573SOL    HW222779   0.428   5.716   0.777
 3574SOL     OW22780   0.427   5.779   1.235
 3574SOL    HW122781   0.419   5.679   1.236
 3574SOL    HW222782   0.488   5.806   1.160
 3575SOL     OW22783   1.047   6.325   0.912
 3575SOL    HW122784   0.951   6.332   0.884
 3575SOL    HW222785   1.083   6.235   0.885
 3576SOL     OW22786   0.248   7.030   0.423
 3576SOL    HW122787   0.317   6.957   0.425
 3576SOL    HW222788   0.273   7.098   0.354
 3577SOL     OW22789   1.469   6.886   1.245
 3577SOL    HW122790   1.428   6.902   1.156
 3577SOL    HW222791   1.403   6.839   1.305
 3578SOL     OW22792   0.170   7.164   0.644
 3578SOL    HW122793   0.139   7.256   0.621
 3578SOL    HW222794   0.196   7.116   0.561
 3579SOL     OW22795   1.716   6.995   1.259
 3579SOL    HW122796   1.726   7.048   1.343
 3579SOL    HW222797   1.624   6.955   1.256
 3580SOL     OW22798   0.485   6.482   0.022
 3580SOL    HW122799   0.474   6.532   9.937
 3580SOL    HW222800   0.482   6.546   0.099
 3581SOL     OW22801   1.061   6.657   1.212
 3581SOL    HW122802   1.060   6.557   1.215
 3581SOL    HW222803   0.973   6.691   1.176
 3582SOL     OW22804   0.054   6.395   0.323
 3582SOL    HW122805   0.061   6.299   0.296
 3582SOL    HW222806   9.963   6.412   0.361
 3583SOL     OW22807   1.566   6.390   0.416
 3583SOL    HW122808   1.633   6.315   0.418
 3583SOL    HW222809   1.584   6.447   0.336
 3584SOL     OW22810   0.894   7.377   1.008
 3584SOL    HW122811   0.930   7.287   0.985
 3584SOL    HW222812   0.813   7.367   1.067
 3585SOL     OW22813   0.762   6.465   0.074
 3585SOL    HW122814   0.807   6.379   0.098
 3585SOL    HW222815   0.665   6.449   0.056
 3586SOL     OW22816   1.341   5.956   0.467
 3586SOL    HW122817   1.263   6.000   0.423
 3586SOL    HW222818   1.426   5.988   0.423
 3587SOL     OW22819   0.145   6.155   1.438
 3587SOL    HW122820   0.160   6.066   1.394
 3587SOL    HW222821   0.166   6.147   1.536
 3588SOL     OW22822   0.196   5.827   1.390
 3588SOL    HW122823   0.280   5.816   1.337
 3588SOL    HW222824   0.130   5.757   1.363
 3589SOL     OW22825   1.038   6.388   1.181
 3589SOL    HW122826   1.040   6.363   1.085
 3589SOL    HW222827   0.951   6.359   1.221
 3590SOL     OW22828   0.925   7.111   0.949
 3590SOL    HW122829   0.979   7.074   0.874
 3590SOL    HW222830   0.828   7.101   0.929
 3591SOL     OW22831   0.799   6.025   0.330
 3591SOL    HW122832   0.723   5.968   0.361
 3591SOL    HW222833   0.881   5.969   0.322
 3592SOL     OW22834   0.997   6.852   0.188
 3592SOL    HW122835   1.038   6.830   0.276
 3592SOL    HW222836   1.057   6.913   0.137
 3593SOL     OW22837   1.745   7.156   0.683
 3593SOL    HW122838   1.710   7.246   0.705
 3593SOL    HW222839   1.741   7.142   0.584
 3594SOL     OW22840   1.178   6.449   0.574
 3594SOL    HW122841   1.218   6.460   0.665
 3594SOL    HW222842   1.090   6.497   0.569
 3595SOL     OW22843   0.774   7.159   1.640
 3595SOL    HW122844   0.763   7.125   1.546
 3595SOL    HW222845   0.770   7.083   1.704
 3596SOL     OW22846   1.274   6.468   0.829
 3596SOL    HW122847   1.201   6.407   0.859
 3596SOL    HW222848   1.269   6.554   0.880
 3597SOL     OW22849   0.937   6.575   0.549
 3597SOL    HW122850   0.894   6.512   0.485
 3597SOL    HW222851   0.871   6.601   0.619
 3598SOL     OW22852   0.035   5.765   0.492
 3598SOL    HW122853   9.964   5.820   0.448
 3598SOL    HW222854   0.089   5.823   0.552
 3599SOL     OW22855   1.673   7.296   0.215
 3599SOL    HW122856   1.770   7.314   0.204
 3599SOL    HW222857   1.626   7.316   0.129
 3600SOL     OW22858   0.829   6.329   1.356
 3600SOL    HW122859   0.814   6.423   1.389
 3600SOL    HW222860   0.875   6.276   1.427
 3601SOL     OW22861   0.062   7.350   1.362
 3601SOL    HW122862   9.985   7.411   1.380
 3601SOL    HW222863   0.087   7.303   1.446
 3602SOL     OW22864   0.815   6.396   0.387
 3602SOL    HW122865   0.716   6.405   0.374
 3602SOL    HW222866   0.853   6.344   0.311
 3603SOL     OW22867   0.346   6.067   0.899
 3603SOL    HW122868   0.424   6.095   0.843
 3603SOL    HW222869   0.341   5.967   0.901
 3604SOL     OW22870   0.329   7.216   0.234
 3604SOL    HW122871   0.342   7.259   0.144
 3604SOL    HW222872   0.328   7.286   0.305
 3605SOL     OW22873   1.338   7.227   1.080
 3605SOL    HW122874   1.340   7.284   0.998
 3605SOL    HW222875   1.424   7.177   1.088
 3606SOL     OW22876   0.674   5.590   0.464
 3606SOL    HW122877   0.653   5.562   0.371
 3606SOL    HW222878   0.680   5.690   0.468
 3607SOL     OW22879   0.029   6.872   0.377
 3607SOL    HW122880   0.103   6.937   0.396
 3607SOL    HW222881   0.065   6.778   0.380
 3608SOL     OW22882   1.624   5.836   1.585
 3608SOL    HW122883   1.566   5.917   1.583
 3608SOL    HW222884   1.664   5.825   1.676
 3609SOL     OW22885   1.275   5.779   0.944
 3609SOL    HW122886   1.306   5.834   0.867
 3609SOL    HW222887   1.328   5.804   1.026
 3610SOL     OW22888   1.311   5.624   0.120
 3610SOL    HW122889   1.390   5.578   0.162
 3610SOL    HW222890   1.232   5.564   0.122
 3611SOL     OW22891   1.602   5.558   1.570
 3611SOL    HW122892   1.584   5.524   1.478
 3611SOL    HW222893   1.600   5.658   1.570
 3612SOL     OW22894   0.716   5.887   0.724
 3612SOL    HW122895   0.715   5.801   0.775
 3612SOL    HW222896   0.810   5.919   0.714
 3613SOL     OW22897   1.309   6.130   1.107
 3613SOL    HW122898   1.318   6.161   1.012
 3613SOL    HW222899   1.352   6.196   1.168
 3614SOL     OW22900   1.566   5.568   0.476
 3614SOL    HW122901   1.570   5.558   0.377
 3614SOL    HW222902   1.477   5.605   0.502
 3615SOL     OW22903   0.498   6.920   1.764
 3615SOL    HW122904   0.472   6.987   1.695
 3615SOL    HW222905   0.598   6.923   1.777
 3616SOL     OW22906   0.441   6.654   1.719
 3616SOL    HW122907   0.491   6.627   1.637
 3616SOL    HW222908   0.455   6.751   1.737
 3617SOL     OW22909   0.156   6.924   1.173
 3617SOL    HW122910   0.125   6.829   1.173
 3617SOL    HW222911   0.129   6.969   1.258
 3618SOL     OW22912   1.133   6.078   0.846
 3618SOL    HW122913   1.215   6.034   0.808
 3618SOL    HW222914   1.107   6.030   0.930
 3619SOL     OW22915   1.763   6.168   1.750
 3619SOL    HW122916   1.761   6.238   1.679
 3619SOL    HW222917   1.858   6.147   1.774
 3620SOL     OW22918   1.409   5.881   1.170
 3620SOL    HW122919   1.377   5.974   1.151
 3620SOL    HW222920   1.387   5.857   1.264
 3621SOL     OW22921   1.539   6.031   1.839
 3621SOL    HW122922   1.620   6.079   1.808
 3621SOL    HW222923   1.563   5.970   1.915
 3622SOL     OW22924   1.301   6.329   0.371
 3622SOL    HW122925   1.252   6.369   0.449
 3622SOL    HW222926   1.399   6.338   0.384
 3623SOL     OW22927   1.532   6.493   0.689
 3623SOL    HW122928   1.527   6.466   0.593
 3623SOL    HW222929   1.445   6.475   0.734
 3624SOL     OW22930   1.784   6.366   1.552
 3624SOL    HW122931   1.733   6.451   1.540
 3624SOL    HW222932   1.881   6.386   1.557
 3625SOL     OW22933   0.713   7.050   1.391
 3625SOL    HW122934   0.656   7.130   1.378
 3625SOL    HW222935   0.696   6.984   1.317
 3626SOL     OW22936   0.190   5.836   1.667
 3626SOL    HW122937   0.206   5.836   1.568
 3626SOL    HW222938   0.101   5.796   1.686
 3627SOL     OW22939   0.122   7.216   1.601
 3627SOL    HW122940   0.209   7.251   1.636
 3627SOL    HW222941   0.072   7.172   1.675
 3628SOL     OW22942   0.207   5.897   0.658
 3628SOL    HW122943   0.156   5.971   0.702
 3628SOL    HW222944   0.270   5.856   0.725
 3629SOL     OW22945   0.340   6.105   0.256
 3629SOL    HW122946   0.370   6.148   0.171
 3629SOL    HW222947   0.346   6.172   0.330
 3630SOL     OW22948   1.802   5.779   1.385
 3630SOL    HW122949   1.733   5.802   1.455
 3630SOL    HW222950   1.761   5.790   1.294
 3631SOL     OW22951   0.499   7.370   0.717
 3631SOL    HW122952   0.464   7.277   0.729
 3631SOL    HW222953   0.536   7.380   0.625
 3632SOL     OW22954   0.400   6.787   1.199
 3632SOL    HW122955   0.405   6.804   1.297
 3632SOL    HW222956   0.320   6.834   1.162
 3633SOL     OW22957   0.757   6.823   0.481
 3633SOL    HW122958   0.774   6.761   0.405
 3633SOL    HW222959   0.754   6.771   0.567
 3634SOL     OW22960   0.363   6.312   0.702
 3634SOL    HW122961   0.359   6.359   0.790
 3634SOL    HW222962   0.430   6.238   0.707
 3635SOL     OW22963   0.301   5.839   0.201
 3635SOL    HW122964   0.361   5.799   0.132
 3635SOL    HW222965   0.320   5.937   0.211
 3636SOL     OW22966   0.085   6.104   0.793
 3636SOL    HW122967   0.029   6.088   0.874
 3636SOL    HW222968   0.179   6.123   0.820
 3637SOL     OW22969   0.517   6.658   0.238
 3637SOL    HW122970   0.615   6.680   0.238
 3637SOL    HW222971   0.470   6.714   0.307
 3638SOL     OW22972   1.124   6.142   0.034
 3638SOL    HW122973   1.152   6.213   9.969
 3638SOL    HW222974   1.171   6.056   0.012
 3639SOL     OW22975   0.889   6.239   0.171
 3639SOL    HW122976   0.972   6.209   0.124
 3639SOL    HW222977   0.846   6.160   0.216
 3640SOL     OW22978   1.322   5.687   0.511
 3640SOL    HW122979   1.228   5.678   0.544
 3640SOL    HW222980   1.341   5.783   0.490
 3641SOL     OW22981   1.441   6.048   1.533
 3641SOL    HW122982   1.383   6.088   1.605
 3641SOL    HW222983   1.390   5.977   1.485
 3642SOL     OW22984   0.115   5.643   0.148
 3642SOL    HW122985   0.150   5.553   0.172
 3642SOL    HW222986   0.179   5.713   0.180
 3643SOL     OW22987   0.426   6.519   1.125
 3643SOL    HW122988   0.393   6.464   1.202
 3643SOL    HW222989   0.421   6.616   1.148
 3644SOL     OW22990   1.642   6.515   0.181
 3644SOL    HW122991   1.727   6.563   0.202
 3644SOL    HW222992   1.642   6.486   0.086
 3645SOL     OW22993   0.660   6.176   1.206
 3645SOL    HW122994   0.708   6.236   1.268
 3645SOL    HW222995   0.578   6.140   1.251
 3646SOL     OW22996   0.803   6.584   1.457
 3646SOL    HW122997   0.844   6.673   1.434
 3646SOL    HW222998   0.798   6.576   1.557
 3647SOL     OW22999   1.195   6.607   1.625
 3647SOL    HW123000   1.122   6.541   1.643
 3647SOL    HW223001   1.283   6.567   1.652
 3648SOL     OW23002   1.049   5.763   0.577
 3648SOL    HW123003   1.018   5.856   0.595
 3648SOL    HW223004   1.043   5.708   0.660
 3649SOL     OW23005   0.692   5.655   0.861
 3649SOL    HW123006   0.630   5.598   0.806
 3649SOL    HW223007   0.767   5.598   0.895
 3650SOL     OW23008   0.310   7.356   1.231
 3650SOL    HW123009   0.298   7.293   1.155
 3650SOL    HW223010   0.223   7.365   1.281
 3651SOL     OW23011   0.984   6.771   0.843
 3651SOL    HW123012   1.011   6.859   0.804
 3651SOL    HW223013   1.065   6.724   0.880
 3652SOL     OW23014   0.654   6.520   0.939
 3652SOL    HW123015   0.692   6.431   0.914
 3652SOL    HW223016   0.577   6.507   1.002
 3653SOL     OW23017   0.105   6.658   1.216
 3653SOL    HW123018   0.160   6.581   1.183
 3653SOL    HW223019   0.058   6.632   1.300
 3654SOL     OW23020   0.282   5.537   0.495
 3654SOL    HW123021   0.313   5.631   0.482
 3654SOL    HW223022   0.186   5.537   0.524
 3655SOL     OW23023   0.614   6.189   1.730
 3655SOL    HW123024   0.581   6.235   1.648
 3655SOL    HW223025   0.704   6.224   1.755
 3656SOL     OW23026   0.183   6.638   0.356
 3656SOL    HW123027   0.139   6.549   0.352
 3656SOL    HW223028   0.203   6.671   0.264
 3657SOL     OW23029   1.755   5.776   0.884
 3657SOL    HW123030   1.730   5.789   0.980
 3657SOL    HW223031   1.855   5.772   0.877
 3658SOL     OW23032   0.828   6.703   1.061
 3658SOL    HW123033   0.768   6.631   1.027
 3658SOL    HW223034   0.883   6.739   0.985
 3659SOL     OW23035   1.167   6.100   0.304
 3659SOL    HW123036   1.215   6.180   0.340
 3659SOL    HW223037   1.152   6.112   0.206
 3660SOL     OW23038   0.276   6.382   1.341
 3660SOL    HW123039   0.230   6.296   1.363
 3660SOL    HW223040   0.280   6.440   1.422
 3661SOL     OW23041   0.771   6.924   0.047
 3661SOL    HW123042   0.732   7.013   0.071
 3661SOL    HW223043   0.853   6.908   0.100
 3662SOL     OW23044   0.651   7.288   1.095
 3662SOL    HW123045   0.645   7.219   1.023
 3662SOL    HW223046   0.608   7.254   1.179
 3663SOL     OW23047   0.749   6.688   0.731
 3663SOL    HW123048   0.832   6.727   0.771
 3663SOL    HW223049   0.707   6.625   0.796
 3664SOL     OW23050   0.933   7.044   0.510
 3664SOL    HW123051   0.991   7.068   0.432
 3664SOL    HW223052   0.884   6.959   0.491
 3665SOL     OW23053   0.054   6.505   1.812
 3665SOL    HW123054   0.011   6.420   1.781
 3665SOL    HW223055   0.088   6.492   1.906
 3666SOL     OW23056   1.210   6.685   0.981
 3666SOL    HW123057   1.265   6.769   0.985
 3666SOL    HW223058   1.164   6.671   1.069
 3667SOL     OW23059   0.588   5.916   1.756
 3667SOL    HW123060   0.657   5.875   1.697
 3667SOL    HW223061   0.593   6.015   1.751
 3668SOL     OW23062   0.549   6.413   0.357
 3668SOL    HW123063   0.529   6.501   0.313
 3668SOL    HW223064   0.463   6.371   0.388
 3669SOL     OW23065   1.666   6.467   1.030
 3669SOL    HW123066   1.658   6.542   0.964
 3669SOL    HW223067   1.599   6.479   1.102
 3670SOL     OW23068   1.329   5.814   1.434
 3670SOL    HW123069   1.352   5.776   1.523
 3670SOL    HW223070   1.266   5.752   1.386
 3671SOL     OW23071   0.010   5.515   0.581
 3671SOL    HW123072   9.915   5.492   0.603
 3671SOL    HW223073   0.014   5.608   0.546
 3672SOL     OW23074   1.315   5.700   1.696
 3672SOL    HW123075   1.372   5.683   1.776
 3672SOL    HW223076   1.241   5.762   1.720
 3673SOL     OW23077   0.440   7.111   1.575
 3673SOL    HW123078   0.409   7.176   1.644
 3673SOL    HW223079   0.480   7.162   1.498
 3674SOL     OW23080   1.060   5.993   1.099
 3674SOL    HW123081   1.138   6.049   1.127
 3674SOL    HW223082   1.073   5.898   1.130
 3675SOL     OW23083   0.384   7.078   0.793
 3675SOL    HW123084   0.413   6.989   0.757
 3675SOL    HW223085   0.304   7.110   0.744
 3676SOL     OW23086   1.125   7.053   1.135
 3676SOL    HW123087   1.043   7.075   1.082
 3676SOL    HW223088   1.186   7.132   1.134
 3677SOL     OW23089   0.339   7.291   1.761
 3677SOL    HW123090   0.356   7.390   1.763
 3677SOL    HW223091   0.333   7.257   1.855
 3678SOL     OW23092   0.160   6.845   1.601
 3678SOL    HW123093   0.082   6.788   1.629
 3678SOL    HW223094   0.130   6.908   1.530
 3679SOL     OW23095   0.246   7.154   1.041
 3679SOL    HW123096   0.214   7.069   1.083
 3679SOL    HW223097   0.297   7.133   0.958
 3680SOL     OW23098   1.041   5.676   0.837
 3680SOL    HW123099   1.122   5.712   0.883
 3680SOL    HW223100   0.989   5.619   0.900
 3681SOL     OW23101   1.093   6.775   0.430
 3681SOL    HW123102   1.179   6.790   0.480
 3681SOL    HW223103   1.040   6.704   0.477
 3682SOL     OW23104   1.604   5.999   0.814
 3682SOL    HW123105   1.651   6.079   0.851
 3682SOL    HW223106   1.660   5.918   0.828
 3683SOL     OW23107   0.791   6.679   0.249
 3683SOL    HW123108   0.868   6.737   0.222
 3683SOL    HW223109   0.795   6.593   0.198
 3684SOL     OW23110   0.876   5.683   0.163
 3684SOL    HW123111   0.943   5.612   0.141
 3684SOL    HW223112   0.918   5.751   0.224
 3685SOL     OW23113   0.553   6.110   0.719
 3685SOL    HW123114   0.592   6.021   0.742
 3685SOL    HW223115   0.611   6.156   0.652
 3686SOL     OW23116   0.531   6.598   1.466
 3686SOL    HW123117   0.628   6.598   1.444
 3686SOL    HW223118   0.493   6.689   1.451
 3687SOL     OW23119   1.746   6.723   1.330
 3687SOL    HW123120   1.749   6.819   1.303
 3687SOL    HW223121   1.807   6.669   1.271
 3688SOL     OW23122   0.214   6.761   0.103
 3688SOL    HW123123   0.217   6.763   0.003
 3688SOL    HW223124   0.279   6.827   0.140
 3689SOL     OW23125   0.657   7.151   0.153
 3689SOL    HW123126   0.647   7.250   0.161
 3689SOL    HW223127   0.632   7.108   0.240
 3690SOL     OW23128   1.283   6.703   1.372
 3690SOL    HW123129   1.255   6.679   1.465
 3690SOL    HW223130   1.204   6.697   1.311
 3691SOL     OW23131   0.536   7.262   1.358
 3691SOL    HW123132   0.592   7.341   1.383
 3691SOL    HW223133   0.451   7.294   1.316
 3692SOL     OW23134   0.194   6.111   1.705
 3692SOL    HW123135   0.202   6.011   1.707
 3692SOL    HW223136   0.262   6.151   1.767
 3693SOL     OW23137   1.604   7.130   1.044
 3693SOL    HW123138   1.649   7.217   1.022
 3693SOL    HW223139   1.653   7.086   1.119
 3694SOL     OW23140   0.525   6.322   1.512
 3694SOL    HW123141   0.466   6.276   1.445
 3694SOL    HW223142   0.525   6.420   1.495
 3695SOL     OW23143   1.643   6.688   0.861
 3695SOL    HW123144   1.613   6.783   0.854
 3695SOL    HW223145   1.599   6.634   0.789
 3696SOL     OW23146   0.796   6.060   1.010
 3696SOL    HW123147   0.888   6.034   1.041
 3696SOL    HW223148   0.747   6.104   1.084
 3697SOL     OW23149   0.662   6.872   1.199
 3697SOL    HW123150   0.569   6.838   1.185
 3697SOL    HW223151   0.726   6.813   1.150
 3698SOL     OW23152   0.234   6.157   1.130
 3698SOL    HW123153   0.249   6.254   1.148
 3698SOL    HW223154   0.281   6.131   1.046
 3699SOL     OW23155   0.402   6.847   1.466
 3699SOL    HW123156   0.436   6.938   1.488
 3699SOL    HW223157   0.318   6.829   1.517
 3700SOL     OW23158   1.354   6.796   0.525
 3700SOL    HW123159   1.446   6.807   0.564
 3700SOL    HW223160   1.361   6.745   0.439
 3701SOL     OW23161   0.628   5.865   0.469
 3701SOL    HW123162   0.531   5.843   0.464
 3701SOL    HW223163   0.655   5.877   0.565
 3702SOL     OW23164   1.584   5.584   0.772
 3702SOL    HW123165   1.592   5.579   0.672
 3702SOL    HW223166   1.648   5.653   0.806
 3703SOL     OW23167   1.187   6.273   1.379
 3703SOL    HW123168   1.285   6.279   1.361
 3703SOL    HW223169   1.136   6.318   1.305
 3704SOL     OW23170   0.781   6.284   0.843
 3704SOL    HW123171   0.777   6.202   0.900
 3704SOL    HW223172   0.770   6.257   0.747
 3705SOL     OW23173   1.327   6.927   1.010
 3705SOL    HW123174   1.252   6.967   1.063
 3705SOL    HW223175   1.338   6.978   0.924
 3706SOL     OW23176   1.350   5.954   0.743
 3706SOL    HW123177   1.342   5.950   0.644
 3706SOL    HW223178   1.444   5.973   0.769
 3707SOL     OW23179   1.695   6.739   2.483
 3707SOL    HW123180   1.712   6.817   2.544
 3707SOL    HW223181   1.778   6.719   2.430
 3708SOL     OW23182   1.608   6.099   3.297
 3708SOL    HW123183   1.521   6.075   3.339
 3708SOL    HW223184   1.678   6.109   3.369
 3709SOL     OW23185   0.389   5.752   1.832
 3709SOL    HW123186   0.313   5.776   1.772
 3709SOL    HW223187   0.468   5.809   1.811
 3710SOL     OW23188   1.000   6.382   3.551
 3710SOL    HW123189   0.969   6.307   3.493
 3710SOL    HW223190   0.924   6.442   3.573
 3711SOL     OW23191   0.557   6.995   2.249
 3711SOL    HW123192   0.515   7.031   2.331
 3711SOL    HW223193   0.616   6.917   2.272
 3712SOL     OW23194   0.556   5.568   1.979
 3712SOL    HW123195   0.649   5.605   1.988
 3712SOL    HW223196   0.498   5.635   1.934
 3713SOL     OW23197   1.621   6.591   3.393
 3713SOL    HW123198   1.525   6.607   3.371
 3713SOL    HW223199   1.677   6.619   3.315
 3714SOL     OW23200   1.513   6.527   3.100
 3714SOL    HW123201   1.446   6.568   3.162
 3714SOL    HW223202   1.602   6.570   3.114
 3715SOL     OW23203   1.006   6.887   3.326
 3715SOL    HW123204   0.926   6.946   3.312
 3715SOL    HW223205   1.000   6.808   3.264
 3716SOL     OW23206   0.467   6.800   2.574
 3716SOL    HW123207   0.419   6.746   2.643
 3716SOL    HW223208   0.562   6.768   2.568
 3717SOL     OW23209   0.768   6.138   2.430
 3717SOL    HW123210   0.772   6.216   2.367
 3717SOL    HW223211   0.742   6.056   2.379
 3718SOL     OW23212   1.328   6.087   3.671
 3718SOL    HW123213   1.428   6.089   3.667
 3718SOL    HW223214   1.298   6.003   3.717
 3719SOL     OW23215   0.409   6.908   2.022
 3719SOL    HW123216   0.450   6.925   1.932
 3719SOL    HW223217   0.457   6.962   2.091
 3720SOL     OW23218   0.592   5.837   2.846
 3720SOL    HW123219   0.656   5.914   2.847
 3720SOL    HW223220   0.636   5.757   2.805
 3721SOL     OW23221   0.242   6.388   2.337
 3721SOL    HW123222   0.271   6.389   2.432
 3721SOL    HW223223   0.144   6.404   2.332
 3722SOL     OW23224   1.836   7.148   2.252
 3722SOL    HW123225   1.917   7.091   2.240
 3722SOL    HW223226   1.783   7.150   2.167
 3723SOL     OW23227   1.677   5.810   2.965
 3723SOL    HW123228   1.684   5.906   2.992
 3723SOL    HW223229   1.582   5.780   2.972
 3724SOL     OW23230   1.081   5.901   2.209
 3724SOL    HW123231   1.131   5.988   2.216
 3724SOL    HW223232   1.088   5.852   2.296
 3725SOL     OW23233   0.221   6.548   3.449
 3725SOL    HW123234   0.294   6.611   3.475
 3725SOL    HW223235   0.175   6.515   3.531
 3726SOL     OW23236   0.383   6.229   1.876
 3726SOL    HW123237   0.387   6.326   1.899
 3726SOL    HW223238   0.466   6.203   1.826
 3727SOL     OW23239   0.971   6.135   3.405
 3727SOL    HW123240   0.991   6.054   3.460
 3727SOL    HW223241   1.050   6.158   3.349
 3728SOL     OW23242   1.740   6.927   2.686
 3728SOL    HW123243   1.738   6.960   2.780
 3728SOL    HW223244   1.748   7.005   2.624
 3729SOL     OW23245   0.315   6.787   2.344
 3729SOL    HW123246   0.367   6.792   2.429
 3729SOL    HW223247   0.368   6.737   2.275
 3730SOL     OW23248   1.222   5.781   2.005
 3730SOL    HW123249   1.293   5.716   2.031
 3730SOL    HW223250   1.176   5.815   2.088
 3731SOL     OW23251   0.398   6.043   3.087
 3731SOL    HW123252   0.395   5.945   3.066
 3731SOL    HW223253   0.320   6.089   3.045
 3732SOL     OW23254   1.439   6.269   3.155
 3732SOL    HW123255   1.469   6.362   3.135
 3732SOL    HW223256   1.510   6.222   3.208
 3733SOL     OW23257   0.408   5.843   2.289
 3733SOL    HW123258   0.349   5.867   2.366
 3733SOL    HW223259   0.353   5.839   2.205
 3734SOL     OW23260   1.616   7.283   3.244
 3734SOL    HW123261   1.593   7.286   3.146
 3734SOL    HW223262   1.715   7.293   3.255
 3735SOL     OW23263   1.723   6.070   3.048
 3735SOL    HW123264   1.806   6.126   3.047
 3735SOL    HW223265   1.678   6.078   3.137
 3736SOL     OW23266   1.860   7.265   3.005
 3736SOL    HW123267   1.872   7.309   3.094
 3736SOL    HW223268   1.945   7.271   2.953
 3737SOL     OW23269   0.989   6.005   2.533
 3737SOL    HW123270   1.046   6.053   2.600
 3737SOL    HW223271   0.920   6.067   2.497
 3738SOL     OW23272   1.090   6.468   2.087
 3738SOL    HW123273   1.170   6.457   2.146
 3738SOL    HW223274   1.092   6.398   2.015
 3739SOL     OW23275   1.037   5.911   3.570
 3739SOL    HW123276   1.109   5.926   3.637
 3739SOL    HW223277   0.974   5.841   3.603
 3740SOL     OW23278   1.764   6.208   2.221
 3740SOL    HW123279   1.713   6.124   2.235
 3740SOL    HW223280   1.830   6.220   2.296
 3741SOL     OW23281   0.726   5.558   3.595
 3741SOL    HW123282   0.752   5.469   3.559
 3741SOL    HW223283   0.806   5.602   3.636
 3742SOL     OW23284   1.695   6.161   2.785
 3742SOL    HW123285   1.666   6.256   2.790
 3742SOL    HW223286   1.697   6.121   2.876
 3743SOL     OW23287   1.105   6.843   3.589
 3743SOL    HW123288   1.153   6.756   3.577
 3743SOL    HW223289   1.057   6.866   3.504
 3744SOL     OW23290   0.819   6.581   3.609
 3744SOL    HW123291   0.862   6.647   3.671
 3744SOL    HW223292   0.727   6.560   3.641
 3745SOL     OW23293   1.412   5.483   2.733
 3745SOL    HW123294   1.350   5.561   2.743
 3745SOL    HW223295   1.491   5.509   2.680
 3746SOL     OW23296   1.730   5.738   3.690
 3746SOL    HW123297   1.706   5.791   3.771
 3746SOL    HW223298   1.654   5.742   3.625
 3747SOL     OW23299   9.965   6.187   2.430
 3747SOL    HW123300   0.028   6.152   2.499
 3747SOL    HW223301   9.973   6.287   2.425
 3748SOL     OW23302   0.399   5.751   2.650
 3748SOL    HW123303   0.458   5.784   2.723
 3748SOL    HW223304   0.434   5.665   2.614
 3749SOL     OW23305   0.411   5.765   3.039
 3749SOL    HW123306   0.402   5.666   3.039
 3749SOL    HW223307   0.479   5.793   2.969
 3750SOL     OW23308   1.042   6.334   2.811
 3750SOL    HW123309   0.954   6.328   2.763
 3750SOL    HW223310   1.103   6.262   2.777
 3751SOL     OW23311   0.185   7.009   2.233
 3751SOL    HW123312   0.234   6.928   2.265
 3751SOL    HW223313   0.224   7.039   2.146
 3752SOL     OW23314   1.506   6.899   3.150
 3752SOL    HW123315   1.473   6.888   3.056
 3752SOL    HW223316   1.429   6.898   3.213
 3753SOL     OW23317   0.164   7.156   2.461
 3753SOL    HW123318   0.110   7.240   2.455
 3753SOL    HW223319   0.157   7.105   2.375
 3754SOL     OW23320   1.769   6.914   3.189
 3754SOL    HW123321   1.801   6.951   3.276
 3754SOL    HW223322   1.669   6.913   3.188
 3755SOL     OW23323   0.437   6.493   1.937
 3755SOL    HW123324   0.432   6.547   1.853
 3755SOL    HW223325   0.441   6.554   2.016
 3756SOL     OW23326   0.971   6.670   3.148
 3756SOL    HW123327   1.017   6.584   3.128
 3756SOL    HW223328   0.916   6.698   3.069
 3757SOL     OW23329   0.117   6.457   2.078
 3757SOL    HW123330   0.198   6.448   2.135
 3757SOL    HW223331   0.058   6.378   2.092
 3758SOL     OW23332   1.582   6.414   2.252
 3758SOL    HW123333   1.644   6.337   2.240
 3758SOL    HW223334   1.612   6.490   2.195
 3759SOL     OW23335   0.712   6.446   1.954
 3759SOL    HW123336   0.747   6.354   1.970
 3759SOL    HW223337   0.612   6.444   1.952
 3760SOL     OW23338   1.375   5.974   2.313
 3760SOL    HW123339   1.328   6.040   2.255
 3760SOL    HW223340   1.474   5.986   2.304
 3761SOL     OW23341   0.361   6.178   3.321
 3761SOL    HW123342   0.380   6.113   3.247
 3761SOL    HW223343   0.317   6.129   3.397
 3762SOL     OW23344   0.237   5.743   3.257
 3762SOL    HW123345   0.297   5.768   3.181
 3762SOL    HW223346   0.199   5.651   3.242
 3763SOL     OW23347   1.026   6.400   3.076
 3763SOL    HW123348   1.036   6.385   2.978
 3763SOL    HW223349   0.939   6.362   3.108
 3764SOL     OW23350   1.654   5.965   2.311
 3764SOL    HW123351   1.745   5.931   2.291
 3764SOL    HW223352   1.640   5.970   2.410
 3765SOL     OW23353   0.841   5.926   2.090
 3765SOL    HW123354   0.772   5.916   2.161
 3765SOL    HW223355   0.932   5.918   2.130
 3766SOL     OW23356   1.781   7.142   2.524
 3766SOL    HW123357   1.753   7.233   2.552
 3766SOL    HW223358   1.780   7.135   2.424
 3767SOL     OW23359   1.181   6.435   2.462
 3767SOL    HW123360   1.227   6.464   2.546
 3767SOL    HW223361   1.082   6.447   2.473
 3768SOL     OW23362   0.836   7.165   3.505
 3768SOL    HW123363   0.804   7.114   3.425
 3768SOL    HW223364   0.834   7.106   3.585
 3769SOL     OW23365   1.335   6.507   2.678
 3769SOL    HW123366   1.293   6.481   2.765
 3769SOL    HW223367   1.407   6.574   2.695
 3770SOL     OW23368   0.328   6.635   2.750
 3770SOL    HW123369   0.240   6.676   2.724
 3770SOL    HW223370   0.327   6.613   2.848
 3771SOL     OW23371   0.903   6.494   2.439
 3771SOL    HW123372   0.867   6.441   2.363
 3771SOL    HW223373   0.828   6.538   2.488
 3772SOL     OW23374   1.290   6.897   3.322
 3772SOL    HW123375   1.328   6.985   3.351
 3772SOL    HW223376   1.190   6.901   3.327
 3773SOL     OW23377   0.066   5.707   2.363
 3773SOL    HW123378   0.011   5.749   2.291
 3773SOL    HW223379   0.115   5.778   2.414
 3774SOL     OW23380   1.610   7.356   2.058
 3774SOL    HW123381   1.707   7.379   2.049
 3774SOL    HW223382   1.584   7.293   1.985
 3775SOL     OW23383   0.817   6.282   3.215
 3775SOL    HW123384   0.796   6.367   3.264
 3775SOL    HW223385   0.860   6.217   3.278
 3776SOL     OW23386   9.997   7.229   3.249
 3776SOL    HW123387   0.012   7.315   3.201
 3776SOL    HW223388   0.024   7.239   3.345
 3777SOL     OW23389   0.767   6.337   2.252
 3777SOL    HW123390   0.671   6.366   2.243
 3777SOL    HW223391   0.800   6.303   2.164
 3778SOL     OW23392   0.369   6.171   2.734
 3778SOL    HW123393   0.438   6.123   2.681
 3778SOL    HW223394   0.393   6.168   2.831
 3779SOL     OW23395   0.358   7.252   2.040
 3779SOL    HW123396   0.451   7.287   2.036
 3779SOL    HW223397   0.310   7.294   2.117
 3780SOL     OW23398   0.080   6.739   2.706
 3780SOL    HW123399   0.027   6.739   2.621
 3780SOL    HW223400   0.031   6.687   2.776
 3781SOL     OW23401   0.741   5.608   2.273
 3781SOL    HW123402   0.766   5.601   2.176
 3781SOL    HW223403   0.717   5.702   2.295
 3782SOL     OW23404   0.051   6.716   2.350
 3782SOL    HW123405   0.146   6.745   2.362
 3782SOL    HW223406   0.025   6.725   2.254
 3783SOL     OW23407   1.521   5.797   3.527
 3783SOL    HW123408   1.426   5.772   3.507
 3783SOL    HW223409   1.527   5.896   3.541
 3784SOL     OW23410   1.288   5.733   2.772
 3784SOL    HW123411   1.313   5.808   2.711
 3784SOL    HW223412   1.329   5.748   2.862
 3785SOL     OW23413   1.438   5.596   2.008
 3785SOL    HW123414   1.533   5.564   2.010
 3785SOL    HW223415   1.376   5.518   2.017
 3786SOL     OW23416   0.755   5.841   2.561
 3786SOL    HW123417   0.742   5.755   2.611
 3786SOL    HW223418   0.848   5.875   2.576
 3787SOL     OW23419   1.384   6.104   2.946
 3787SOL    HW123420   1.408   6.145   2.858
 3787SOL    HW223421   1.407   6.167   3.020
 3788SOL     OW23422   1.578   5.592   2.306
 3788SOL    HW123423   1.594   5.541   2.222
 3788SOL    HW223424   1.485   5.628   2.307
 3789SOL     OW23425   0.561   6.926   3.628
 3789SOL    HW123426   0.522   7.003   3.577
 3789SOL    HW223427   0.656   6.945   3.651
 3790SOL     OW23428   0.441   6.698   3.522
 3790SOL    HW123429   0.483   6.680   3.433
 3790SOL    HW223430   0.478   6.784   3.559
 3791SOL     OW23431   0.147   6.911   2.916
 3791SOL    HW123432   0.131   6.858   2.833
 3791SOL    HW223433   0.064   6.912   2.971
 3792SOL     OW23434   1.161   6.099   2.725
 3792SOL    HW123435   1.237   6.046   2.689
 3792SOL    HW223436   1.128   6.059   2.810
 3793SOL     OW23437   1.838   6.132   3.514
 3793SOL    HW123438   1.817   6.220   3.470
 3793SOL    HW223439   1.936   6.129   3.535
 3794SOL     OW23440   1.601   6.049   3.651
 3794SOL    HW123441   1.688   6.082   3.614
 3794SOL    HW223442   1.617   6.002   3.737
 3795SOL     OW23443   1.310   6.388   2.234
 3795SOL    HW123444   1.267   6.406   2.323
 3795SOL    HW223445   1.409   6.402   2.242
 3796SOL     OW23446   1.584   6.429   2.528
 3796SOL    HW123447   1.577   6.431   2.428
 3796SOL    HW223448   1.492   6.432   2.568
 3797SOL     OW23449   1.794   6.368   3.387
 3797SOL    HW123450   1.717   6.430   3.377
 3797SOL    HW223451   1.879   6.420   3.389
 3798SOL     OW23452   1.594   5.842   2.037
 3798SOL    HW123453   1.609   5.873   2.131
 3798SOL    HW223454   1.526   5.769   2.038
 3799SOL     OW23455   0.751   7.032   3.276
 3799SOL    HW123456   0.687   7.108   3.267
 3799SOL    HW223457   0.718   6.954   3.223
 3800SOL     OW23458   0.194   5.789   3.519
 3800SOL    HW123459   0.216   5.774   3.423
 3800SOL    HW223460   0.101   5.757   3.537
 3801SOL     OW23461   0.065   7.293   3.514
 3801SOL    HW123462   0.160   7.308   3.543
 3801SOL    HW223463   0.023   7.224   3.573
 3802SOL     OW23464   0.225   5.886   2.493
 3802SOL    HW123465   0.182   5.962   2.542
 3802SOL    HW223466   0.286   5.837   2.556
 3803SOL     OW23467   1.423   7.128   3.376
 3803SOL    HW123468   1.355   7.192   3.412
 3803SOL    HW223469   1.491   7.179   3.322
 3804SOL     OW23470   0.258   6.119   2.093
 3804SOL    HW123471   0.302   6.158   2.012
 3804SOL    HW223472   0.307   6.151   2.175
 3805SOL     OW23473   0.421   7.350   2.480
 3805SOL    HW123474   0.375   7.377   2.565
 3805SOL    HW223475   0.439   7.252   2.482
 3806SOL     OW23476   0.370   6.844   3.075
 3806SOL    HW123477   0.362   6.877   3.169
 3806SOL    HW223478   0.294   6.880   3.020
 3807SOL     OW23479   1.175   7.109   3.685
 3807SOL    HW123480   1.149   7.016   3.658
 3807SOL    HW223481   1.196   7.163   3.603
 3808SOL     OW23482   0.699   6.756   2.298
 3808SOL    HW123483   0.768   6.717   2.237
 3808SOL    HW223484   0.719   6.730   2.392
 3809SOL     OW23485   0.290   6.400   2.606
 3809SOL    HW123486   0.322   6.483   2.653
 3809SOL    HW223487   0.332   6.320   2.650
 3810SOL     OW23488   0.253   5.844   2.060
 3810SOL    HW123489   0.306   5.817   1.980
 3810SOL    HW223490   0.246   5.944   2.062
 3811SOL     OW23491   0.117   6.094   2.644
 3811SOL    HW123492   0.062   6.069   2.722
 3811SOL    HW223493   0.208   6.122   2.675
 3812SOL     OW23494   0.483   6.677   2.147
 3812SOL    HW123495   0.566   6.702   2.196
 3812SOL    HW223496   0.452   6.754   2.092
 3813SOL     OW23497   1.104   6.252   1.901
 3813SOL    HW123498   1.073   6.319   1.833
 3813SOL    HW223499   1.172   6.192   1.859
 3814SOL     OW23500   0.843   6.204   2.008
 3814SOL    HW123501   0.936   6.218   1.975
 3814SOL    HW223502   0.828   6.107   2.027
 3815SOL     OW23503   1.330   5.705   2.314
 3815SOL    HW123504   1.245   5.693   2.365
 3815SOL    HW223505   1.352   5.803   2.308
 3816SOL     OW23506   1.354   6.066   3.397
 3816SOL    HW123507   1.336   6.081   3.494
 3816SOL    HW223508   1.286   6.114   3.342
 3817SOL     OW23509   0.042   5.664   2.054
 3817SOL    HW123510   0.077   5.578   2.091
 3817SOL    HW223511   0.115   5.732   2.055
 3818SOL     OW23512   0.280   6.588   3.022
 3818SOL    HW123513   0.279   6.522   3.097
 3818SOL    HW223514   0.320   6.674   3.054
 3819SOL     OW23515   1.688   6.582   2.067
 3819SOL    HW123516   1.786   6.596   2.084
 3819SOL    HW223517   1.672   6.574   1.969
 3820SOL     OW23518   0.629   6.194   3.029
 3820SOL    HW123519   0.685   6.229   3.104
 3820SOL    HW223520   0.551   6.144   3.065
 3821SOL     OW23521   0.820   6.534   3.337
 3821SOL    HW123522   0.881   6.591   3.282
 3821SOL    HW223523   0.826   6.560   3.433
 3822SOL     OW23524   1.192   6.579   3.528
 3822SOL    HW123525   1.119   6.511   3.529
 3822SOL    HW223526   1.276   6.539   3.565
 3823SOL     OW23527   1.094   5.770   2.454
 3823SOL    HW123528   1.060   5.860   2.482
 3823SOL    HW223529   1.073   5.703   2.525
 3824SOL     OW23530   1.236   7.289   3.482
 3824SOL    HW123531   1.150   7.308   3.434
 3824SOL    HW223532   1.269   7.373   3.525
 3825SOL     OW23533   0.690   5.625   2.710
 3825SOL    HW123534   0.630   5.562   2.662
 3825SOL    HW223535   0.760   5.574   2.759
 3826SOL     OW23536   0.942   6.821   2.683
 3826SOL    HW123537   0.989   6.786   2.602
 3826SOL    HW223538   0.980   6.911   2.707
 3827SOL     OW23539   0.695   6.493   2.788
 3827SOL    HW123540   0.738   6.412   2.749
 3827SOL    HW223541   0.621   6.466   2.849
 3828SOL     OW23542   0.013   6.597   2.936
 3828SOL    HW123543   0.103   6.604   2.979
 3828SOL    HW223544   0.002   6.505   2.897
 3829SOL     OW23545   0.290   5.575   2.272
 3829SOL    HW123546   0.365   5.638   2.290
 3829SOL    HW223547   0.205   5.612   2.310
 3830SOL     OW23548   0.707   6.146   3.512
 3830SOL    HW123549   0.662   6.225   3.470
 3830SOL    HW223550   0.799   6.137   3.476
 3831SOL     OW23551   0.021   6.716   2.072
 3831SOL    HW123552   0.060   6.624   2.067
 3831SOL    HW223553   0.067   6.776   2.007
 3832SOL     OW23554   1.775   5.763   2.711
 3832SOL    HW123555   1.743   5.776   2.805
 3832SOL    HW223556   1.873   5.742   2.712
 3833SOL     OW23557   0.817   6.714   2.914
 3833SOL    HW123558   0.776   6.630   2.879
 3833SOL    HW223559   0.868   6.759   2.841
 3834SOL     OW23560   1.219   6.144   2.158
 3834SOL    HW123561   1.252   6.231   2.194
 3834SOL    HW223562   1.177   6.158   2.068
 3835SOL     OW23563   1.583   6.992   3.549
 3835SOL    HW123564   1.546   6.907   3.588
 3835SOL    HW223565   1.518   7.030   3.484
 3836SOL     OW23566   0.236   6.393   3.225
 3836SOL    HW123567   0.286   6.313   3.257
 3836SOL    HW223568   0.229   6.459   3.300
 3837SOL     OW23569   0.763   6.940   1.809
 3837SOL    HW123570   0.755   6.988   1.897
 3837SOL    HW223571   0.851   6.894   1.803
 3838SOL     OW23572   0.725   6.679   2.580
 3838SOL    HW123573   0.798   6.739   2.613
 3838SOL    HW223574   0.702   6.612   2.650
 3839SOL     OW23575   0.076   6.362   2.788
 3839SOL    HW123576   0.139   6.383   2.713
 3839SOL    HW223577   0.013   6.290   2.760
 3840SOL     OW23578   0.092   6.448   3.673
 3840SOL    HW123579   0.065   6.357   3.642
 3840SOL    HW223580   0.086   6.453   3.773
 3841SOL     OW23581   0.998   7.339   3.369
 3841SOL    HW123582   0.941   7.277   3.422
 3841SOL    HW223583   0.945   7.377   3.293
 3842SOL     OW23584   0.494   6.042   3.651
 3842SOL    HW123585   0.573   6.060   3.592
 3842SOL    HW223586   0.496   6.104   3.729
 3843SOL     OW23587   0.504   6.417   2.243
 3843SOL    HW123588   0.501   6.511   2.209
 3843SOL    HW223589   0.414   6.392   2.280
 3844SOL     OW23590   1.598   6.416   2.854
 3844SOL    HW123591   1.599   6.491   2.788
 3844SOL    HW223592   1.566   6.449   2.942
 3845SOL     OW23593   9.987   5.452   2.425
 3845SOL    HW123594   9.971   5.416   2.333
 3845SOL    HW223595   0.009   5.550   2.419
 3846SOL     OW23596   1.251   5.719   3.521
 3846SOL    HW123597   1.252   5.721   3.621
 3846SOL    HW223598   1.177   5.777   3.487
 3847SOL     OW23599   0.452   7.132   3.491
 3847SOL    HW123600   0.400   7.198   3.544
 3847SOL    HW223601   0.499   7.178   3.416
 3848SOL     OW23602   1.830   7.010   3.437
 3848SOL    HW123603   1.867   7.101   3.454
 3848SOL    HW223604   1.742   7.001   3.482
 3849SOL     OW23605   1.039   6.034   2.974
 3849SOL    HW123606   1.053   6.117   3.029
 3849SOL    HW223607   1.103   5.963   3.003
 3850SOL     OW23608   0.423   7.069   2.493
 3850SOL    HW123609   0.437   6.978   2.532
 3850SOL    HW223610   0.326   7.088   2.485
 3851SOL     OW23611   0.310   7.310   3.647
 3851SOL    HW123612   0.340   7.405   3.661
 3851SOL    HW223613   0.300   7.265   3.735
 3852SOL     OW23614   0.127   6.859   3.477
 3852SOL    HW123615   0.058   6.801   3.520
 3852SOL    HW223616   0.089   6.901   3.395
 3853SOL     OW23617   0.252   7.145   2.816
 3853SOL    HW123618   0.218   7.063   2.862
 3853SOL    HW223619   0.305   7.119   2.736
 3854SOL     OW23620   1.038   5.652   2.694
 3854SOL    HW123621   1.127   5.679   2.731
 3854SOL    HW223622   0.983   5.609   2.766
 3855SOL     OW23623   1.046   6.730   2.451
 3855SOL    HW123624   1.119   6.745   2.384
 3855SOL    HW223625   1.004   6.641   2.434
 3856SOL     OW23626   1.635   5.970   2.591
 3856SOL    HW123627   1.652   6.050   2.648
 3856SOL    HW223628   1.689   5.892   2.624
 3857SOL     OW23629   0.858   6.618   2.121
 3857SOL    HW123630   0.951   6.580   2.118
 3857SOL    HW223631   0.798   6.565   2.061
 3858SOL     OW23632   0.815   5.653   2.001
 3858SOL    HW123633   0.898   5.596   2.002
 3858SOL    HW223634   0.840   5.748   2.019
 3859SOL     OW23635   0.562   6.050   2.595
 3859SOL    HW123636   0.599   5.958   2.610
 3859SOL    HW223637   0.624   6.101   2.536
 3860SOL     OW23638   0.568   6.623   3.291
 3860SOL    HW123639   0.660   6.585   3.306
 3860SOL    HW223640   0.575   6.702   3.230
 3861SOL     OW23641   1.755   6.644   3.155
 3861SOL    HW123642   1.770   6.743   3.165
 3861SOL    HW223643   1.814   6.609   3.083
 3862SOL     OW23644   0.170   6.876   1.887
 3862SOL    HW123645   0.188   6.856   1.791
 3862SOL    HW223646   0.257   6.883   1.937
 3863SOL     OW23647   0.676   7.097   2.021
 3863SOL    HW123648   0.655   7.193   2.006
 3863SOL    HW223649   0.642   7.069   2.111
 3864SOL     OW23650   1.361   6.635   3.308
 3864SOL    HW123651   1.299   6.589   3.372
 3864SOL    HW223652   1.340   6.733   3.307
 3865SOL     OW23653   0.564   7.243   3.267
 3865SOL    HW123654   0.565   7.335   3.305
 3865SOL    HW223655   0.503   7.240   3.188
 3866SOL     OW23656   0.247   6.055   3.539
 3866SOL    HW123657   0.219   5.959   3.528
 3866SOL    HW223658   0.335   6.059   3.585
 3867SOL     OW23659   1.760   7.021   2.940
 3867SOL    HW123660   1.779   7.119   2.953
 3867SOL    HW223661   1.756   6.976   3.029
 3868SOL     OW23662   9.971   6.458   2.383
 3868SOL    HW123663   0.005   6.552   2.385
 3868SOL    HW223664   9.876   6.457   2.351
 3869SOL     OW23665   0.564   6.347   3.392
 3869SOL    HW123666   0.487   6.288   3.368
 3869SOL    HW223667   0.545   6.441   3.362
 3870SOL     OW23668   1.558   6.668   2.713
 3870SOL    HW123669   1.586   6.756   2.751
 3870SOL    HW223670   1.593   6.659   2.620
 3871SOL     OW23671   0.781   6.045   2.862
 3871SOL    HW123672   0.872   6.030   2.900
 3871SOL    HW223673   0.727   6.101   2.925
 3872SOL     OW23674   0.646   6.830   3.111
 3872SOL    HW123675   0.551   6.842   3.081
 3872SOL    HW223676   0.701   6.796   3.035
 3873SOL     OW23677   0.207   6.227   2.995
 3873SOL    HW123678   0.219   6.288   3.074
 3873SOL    HW223679   0.166   6.278   2.919
 3874SOL     OW23680   0.354   6.928   3.331
 3874SOL    HW123681   0.394   7.003   3.385
 3874SOL    HW223682   0.277   6.888   3.382
 3875SOL     OW23683   1.671   7.231   3.657
 3875SOL    HW123684   1.639   7.139   3.632
 3875SOL    HW223685   1.626   7.298   3.598
 3876SOL     OW23686   0.676   5.890   2.311
 3876SOL    HW123687   0.577   5.877   2.299
 3876SOL    HW223688   0.702   5.867   2.404
 3877SOL     OW23689   1.622   5.570   2.582
 3877SOL    HW123690   1.602   5.590   2.486
 3877SOL    HW223691   1.680   5.642   2.621
 3878SOL     OW23692   1.179   6.230   3.234
 3878SOL    HW123693   1.275   6.242   3.208
 3878SOL    HW223694   1.123   6.300   3.189
 3879SOL     OW23695   0.801   6.260   2.687
 3879SOL    HW123696   0.788   6.180   2.745
 3879SOL    HW223697   0.794   6.233   2.590
 3880SOL     OW23698   1.360   5.946   2.603
 3880SOL    HW123699   1.332   5.948   2.508
 3880SOL    HW223700   1.460   5.954   2.609
 3881SOL     OW23701   1.084   6.972   4.436
 3881SOL    HW123702   1.178   7.005   4.435
 3881SOL    HW223703   1.039   6.995   4.349
 3882SOL     OW23704   1.597   6.810   4.249
 3882SOL    HW123705   1.605   6.875   4.325
 3882SOL    HW223706   1.687   6.773   4.226
 3883SOL     OW23707   1.645   6.206   5.093
 3883SOL    HW123708   1.577   6.156   5.147
 3883SOL    HW223709   1.698   6.266   5.154
 3884SOL     OW23710   0.390   5.791   3.708
 3884SOL    HW123711   0.318   5.784   3.639
 3884SOL    HW223712   0.447   5.871   3.689
 3885SOL     OW23713   1.339   7.074   4.487
 3885SOL    HW123714   1.356   7.173   4.496
 3885SOL    HW223715   1.426   7.027   4.470
 3886SOL     OW23716   1.255   5.543   5.111
 3886SOL    HW123717   1.158   5.524   5.125
 3886SOL    HW223718   1.284   5.507   5.022
 3887SOL     OW23719   1.055   6.384   5.386
 3887SOL    HW123720   1.037   6.305   5.329
 3887SOL    HW223721   0.975   6.444   5.388
 3888SOL     OW23722   0.583   6.994   4.094
 3888SOL    HW123723   0.526   7.025   4.171
 3888SOL    HW223724   0.648   6.925   4.127
 3889SOL     OW23725   0.546   5.578   3.802
 3889SOL    HW123726   0.612   5.563   3.729
 3889SOL    HW223727   0.497   5.663   3.786
 3890SOL     OW23728   1.589   6.586   5.194
 3890SOL    HW123729   1.496   6.621   5.187
 3890SOL    HW223730   1.642   6.616   5.114
 3891SOL     OW23731   1.450   6.599   4.903
 3891SOL    HW123732   1.397   6.627   4.983
 3891SOL    HW223733   1.543   6.632   4.911
 3892SOL     OW23734   0.969   6.821   5.174
 3892SOL    HW123735   0.888   6.878   5.161
 3892SOL    HW223736   0.968   6.747   5.106
 3893SOL     OW23737   0.443   6.721   4.413
 3893SOL    HW123738   0.399   6.665   4.484
 3893SOL    HW223739   0.537   6.688   4.398
 3894SOL     OW23740   0.769   6.144   4.248
 3894SOL    HW123741   0.753   6.218   4.183
 3894SOL    HW223742   0.741   6.057   4.208
 3895SOL     OW23743   1.335   6.088   5.481
 3895SOL    HW123744   1.423   6.053   5.514
 3895SOL    HW223745   1.273   6.012   5.464
 3896SOL     OW23746   0.440   6.893   3.870
 3896SOL    HW123747   0.487   6.908   3.783
 3896SOL    HW223748   0.486   6.945   3.942
 3897SOL     OW23749   0.604   5.878   4.713
 3897SOL    HW123750   0.667   5.954   4.699
 3897SOL    HW223751   0.641   5.796   4.669
 3898SOL     OW23752   0.212   6.395   4.184
 3898SOL    HW123753   0.272   6.378   4.262
 3898SOL    HW223754   0.143   6.463   4.210
 3899SOL     OW23755   0.767   7.235   4.293
 3899SOL    HW123756   0.822   7.157   4.262
 3899SOL    HW223757   0.797   7.318   4.245
 3900SOL     OW23758   1.781   7.140   4.087
 3900SOL    HW123759   1.875   7.108   4.073
 3900SOL    HW223760   1.757   7.206   4.016
 3901SOL     OW23761   1.671   5.851   4.808
 3901SOL    HW123762   1.705   5.944   4.825
 3901SOL    HW223763   1.571   5.853   4.806
 3902SOL     OW23764   1.081   5.910   3.994
 3902SOL    HW123765   1.112   5.999   4.029
 3902SOL    HW223766   1.053   5.852   4.071
 3903SOL     OW23767   0.225   6.529   5.283
 3903SOL    HW123768   0.299   6.593   5.304
 3903SOL    HW223769   0.180   6.502   5.367
 3904SOL     OW23770   0.683   7.100   4.516
 3904SOL    HW123771   0.724   7.156   4.443
 3904SOL    HW223772   0.602   7.053   4.480
 3905SOL     OW23773   1.029   6.145   5.246
 3905SOL    HW123774   1.058   6.064   5.297
 3905SOL    HW223775   1.102   6.175   5.185
 3906SOL     OW23776   1.608   6.981   4.482
 3906SOL    HW123777   1.617   7.009   4.578
 3906SOL    HW223778   1.666   7.039   4.425
 3907SOL     OW23779   0.314   6.789   4.172
 3907SOL    HW123780   0.345   6.761   4.262
 3907SOL    HW223781   0.370   6.745   4.101
 3908SOL     OW23782   1.237   5.855   3.780
 3908SOL    HW123783   1.310   5.796   3.816
 3908SOL    HW223784   1.170   5.871   3.852
 3909SOL     OW23785   0.426   6.121   4.856
 3909SOL    HW123786   0.413   6.024   4.878
 3909SOL    HW223787   0.337   6.166   4.855
 3910SOL     OW23788   1.443   6.326   4.950
 3910SOL    HW123789   1.447   6.425   4.936
 3910SOL    HW223790   1.527   6.296   4.995
 3911SOL     OW23791   0.402   5.829   4.144
 3911SOL    HW123792   0.353   5.865   4.223
 3911SOL    HW223793   0.348   5.844   4.061
 3912SOL     OW23794   1.592   7.291   5.001
 3912SOL    HW123795   1.525   7.291   4.926
 3912SOL    HW223796   1.683   7.273   4.963
 3913SOL     OW23797   1.756   6.104   4.867
 3913SOL    HW123798   1.846   6.145   4.857
 3913SOL    HW223799   1.713   6.137   4.951
 3914SOL     OW23800   1.828   7.281   4.834
 3914SOL    HW123801   1.852   7.349   4.904
 3914SOL    HW223802   1.910   7.258   4.781
 3915SOL     OW23803   1.011   6.022   4.319
 3915SOL    HW123804   1.063   6.074   4.388
 3915SOL    HW223805   0.931   6.075   4.291
 3916SOL     OW23806   1.257   6.525   3.844
 3916SOL    HW123807   1.282   6.485   3.932
 3916SOL    HW223808   1.208   6.457   3.789
 3917SOL     OW23809   1.746   6.239   4.067
 3917SOL    HW123810   1.699   6.151   4.079
 3917SOL    HW223811   1.812   6.251   4.140
 3918SOL     OW23812   1.023   7.324   3.840
 3918SOL    HW123813   1.046   7.268   3.760
 3918SOL    HW223814   1.032   7.270   3.923
 3919SOL     OW23815   0.810   5.558   5.400
 3919SOL    HW123816   0.828   5.463   5.372
 3919SOL    HW223817   0.809   5.564   5.500
 3920SOL     OW23818   1.705   6.197   4.613
 3920SOL    HW123819   1.685   6.295   4.620
 3920SOL    HW223820   1.714   6.158   4.705
 3921SOL     OW23821   1.047   6.761   5.436
 3921SOL    HW123822   1.129   6.707   5.424
 3921SOL    HW223823   1.020   6.802   5.349
 3922SOL     OW23824   0.851   6.562   5.409
 3922SOL    HW123825   0.904   6.644   5.431
 3922SOL    HW223826   0.798   6.534   5.489
 3923SOL     OW23827   1.396   5.530   4.641
 3923SOL    HW123828   1.341   5.611   4.621
 3923SOL    HW223829   1.469   5.523   4.573
 3924SOL     OW23830   1.772   5.750   5.438
 3924SOL    HW123831   1.756   5.770   5.535
 3924SOL    HW223832   1.746   5.656   5.419
 3925SOL     OW23833   0.004   6.213   4.294
 3925SOL    HW123834   0.051   6.170   4.371
 3925SOL    HW223835   0.069   6.266   4.240
 3926SOL     OW23836   0.381   5.778   4.548
 3926SOL    HW123837   0.456   5.824   4.596
 3926SOL    HW223838   0.412   5.688   4.516
 3927SOL     OW23839   0.396   5.838   4.884
 3927SOL    HW123840   0.346   5.760   4.847
 3927SOL    HW223841   0.479   5.853   4.830
 3928SOL     OW23842   1.065   6.344   4.614
 3928SOL    HW123843   0.975   6.347   4.570
 3928SOL    HW223844   1.112   6.261   4.585
 3929SOL     OW23845   0.302   7.072   4.158
 3929SOL    HW123846   0.298   6.972   4.147
 3929SOL    HW223847   0.310   7.115   4.068
 3930SOL     OW23848   1.453   6.941   4.954
 3930SOL    HW123849   1.411   6.959   4.865
 3930SOL    HW223850   1.382   6.928   5.023
 3931SOL     OW23851   0.269   7.243   4.370
 3931SOL    HW123852   0.194   7.308   4.358
 3931SOL    HW223853   0.276   7.185   4.289
 3932SOL     OW23854   1.723   6.942   4.957
 3932SOL    HW123855   1.759   6.988   5.038
 3932SOL    HW223856   1.623   6.942   4.961
 3933SOL     OW23857   0.564   6.527   3.692
 3933SOL    HW123858   0.510   6.589   3.636
 3933SOL    HW223859   0.514   6.442   3.706
 3934SOL     OW23860   0.952   6.621   4.985
 3934SOL    HW123861   1.009   6.543   4.958
 3934SOL    HW223862   0.906   6.658   4.904
 3935SOL     OW23863   0.055   6.452   3.947
 3935SOL    HW123864   0.122   6.421   4.013
 3935SOL    HW223865   9.963   6.441   3.985
 3936SOL     OW23866   1.593   6.465   4.119
 3936SOL    HW123867   1.648   6.384   4.102
 3936SOL    HW223868   1.618   6.537   4.054
 3937SOL     OW23869   0.853   7.328   4.711
 3937SOL    HW123870   0.905   7.244   4.691
 3937SOL    HW223871   0.765   7.304   4.751
 3938SOL     OW23872   1.374   5.981   4.139
 3938SOL    HW123873   1.322   6.047   4.085
 3938SOL    HW223874   1.472   5.999   4.129
 3939SOL     OW23875   0.177   6.125   5.139
 3939SOL    HW123876   0.180   6.031   5.104
 3939SOL    HW223877   0.187   6.123   5.238
 3940SOL     OW23878   0.204   5.844   5.088
 3940SOL    HW123879   0.281   5.848   5.025
 3940SOL    HW223880   0.146   5.765   5.066
 3941SOL     OW23881   1.041   6.372   4.893
 3941SOL    HW123882   1.051   6.364   4.794
 3941SOL    HW223883   0.961   6.319   4.922
 3942SOL     OW23884   1.658   5.989   4.156
 3942SOL    HW123885   1.748   5.947   4.145
 3942SOL    HW223886   1.637   5.997   4.253
 3943SOL     OW23887   0.932   7.078   4.635
 3943SOL    HW123888   0.995   7.039   4.568
 3943SOL    HW223889   0.838   7.071   4.600
 3944SOL     OW23890   0.963   6.789   3.825
 3944SOL    HW123891   1.013   6.783   3.911
 3944SOL    HW223892   1.027   6.805   3.750
 3945SOL     OW23893   1.764   7.160   4.354
 3945SOL    HW123894   1.727   7.249   4.380
 3945SOL    HW223895   1.765   7.151   4.254
 3946SOL     OW23896   1.183   6.461   4.279
 3946SOL    HW123897   1.212   6.489   4.371
 3946SOL    HW223898   1.089   6.490   4.263
 3947SOL     OW23899   0.848   7.088   5.327
 3947SOL    HW123900   0.798   7.033   5.260
 3947SOL    HW223901   0.820   7.063   5.419
 3948SOL     OW23902   1.274   6.511   4.533
 3948SOL    HW123903   1.202   6.451   4.569
 3948SOL    HW223904   1.282   6.592   4.590
 3949SOL     OW23905   0.930   6.542   4.218
 3949SOL    HW123906   0.876   6.500   4.146
 3949SOL    HW223907   0.870   6.567   4.295
 3950SOL     OW23908   1.210   6.921   5.091
 3950SOL    HW123909   1.195   7.006   5.040
 3950SOL    HW223910   1.123   6.890   5.130
 3951SOL     OW23911   0.088   5.778   4.157
 3951SOL    HW123912   0.127   5.815   4.072
 3951SOL    HW223913   0.128   5.826   4.235
 3952SOL     OW23914   1.711   7.338   3.905
 3952SOL    HW123915   1.795   7.391   3.896
 3952SOL    HW223916   1.689   7.294   3.818
 3953SOL     OW23917   0.845   6.251   5.056
 3953SOL    HW123918   0.814   6.335   5.100
 3953SOL    HW223919   0.897   6.196   5.122
 3954SOL     OW23920   0.100   7.258   5.083
 3954SOL    HW123921   0.035   7.325   5.049
 3954SOL    HW223922   0.104   7.261   5.183
 3955SOL     OW23923   0.386   6.147   4.580
 3955SOL    HW123924   0.456   6.100   4.526
 3955SOL    HW223925   0.408   6.139   4.677
 3956SOL     OW23926   0.348   7.235   3.921
 3956SOL    HW123927   0.438   7.265   3.891
 3956SOL    HW223928   0.310   7.300   3.986
 3957SOL     OW23929   1.404   7.279   4.803
 3957SOL    HW123930   1.419   7.296   4.706
 3957SOL    HW223931   1.361   7.189   4.815
 3958SOL     OW23932   9.796   6.561   4.583
 3958SOL    HW123933   9.712   6.613   4.600
 3958SOL    HW223934   9.853   6.562   4.665
 3959SOL     OW23935   0.784   5.736   3.949
 3959SOL    HW123936   0.727   5.654   3.960
 3959SOL    HW223937   0.759   5.803   4.018
 3960SOL     OW23938   0.034   6.824   4.135
 3960SOL    HW123939   0.131   6.822   4.158
 3960SOL    HW223940   0.021   6.793   4.041
 3961SOL     OW23941   1.588   5.849   5.246
 3961SOL    HW123942   1.543   5.939   5.245
 3961SOL    HW223943   1.647   5.842   5.326
 3962SOL     OW23944   1.265   5.774   4.606
 3962SOL    HW123945   1.294   5.828   4.527
 3962SOL    HW223946   1.312   5.807   4.688
 3963SOL     OW23947   1.429   5.695   3.897
 3963SOL    HW123948   1.479   5.609   3.887
 3963SOL    HW223949   1.378   5.695   3.983
 3964SOL     OW23950   1.596   5.568   5.270
 3964SOL    HW123951   1.593   5.519   5.182
 3964SOL    HW223952   1.584   5.666   5.253
 3965SOL     OW23953   0.774   5.843   4.402
 3965SOL    HW123954   0.743   5.770   4.462
 3965SOL    HW223955   0.873   5.852   4.408
 3966SOL     OW23956   1.314   6.142   4.794
 3966SOL    HW123957   1.309   6.174   4.699
 3966SOL    HW223958   1.361   6.211   4.850
 3967SOL     OW23959   1.546   5.577   4.183
 3967SOL    HW123960   1.550   5.506   4.113
 3967SOL    HW223961   1.459   5.626   4.176
 3968SOL     OW23962   0.511   6.923   5.455
 3968SOL    HW123963   0.481   6.987   5.384
 3968SOL    HW223964   0.604   6.947   5.484
 3969SOL     OW23965   0.449   6.672   5.363
 3969SOL    HW123966   0.485   6.664   5.270
 3969SOL    HW223967   0.466   6.764   5.399
 3970SOL     OW23968   0.094   7.037   4.731
 3970SOL    HW123969   0.124   6.960   4.788
 3970SOL    HW223970   0.011   7.077   4.770
 3971SOL     OW23971   1.166   6.105   4.539
 3971SOL    HW123972   1.237   6.051   4.493
 3971SOL    HW223973   1.124   6.050   4.611
 3972SOL     OW23974   1.772   6.169   5.438
 3972SOL    HW123975   1.760   6.250   5.381
 3972SOL    HW223976   1.870   6.148   5.445
 3973SOL     OW23977   1.394   5.882   4.824
 3973SOL    HW123978   1.370   5.980   4.818
 3973SOL    HW223979   1.379   5.850   4.917
 3974SOL     OW23980   1.584   5.994   5.535
 3974SOL    HW123981   1.652   6.060   5.503
 3974SOL    HW223982   1.626   5.933   5.603
 3975SOL     OW23983   1.334   6.399   4.072
 3975SOL    HW123984   1.277   6.423   4.150
 3975SOL    HW223985   1.429   6.423   4.092
 3976SOL     OW23986   1.539   6.514   4.389
 3976SOL    HW123987   1.542   6.503   4.290
 3976SOL    HW223988   1.445   6.499   4.421
 3977SOL     OW23989   1.762   6.387   5.262
 3977SOL    HW123990   1.690   6.456   5.251
 3977SOL    HW223991   1.850   6.427   5.236
 3978SOL     OW23992   1.613   5.900   3.885
 3978SOL    HW123993   1.636   5.929   3.978
 3978SOL    HW223994   1.542   5.829   3.889
 3979SOL     OW23995   0.724   6.957   5.123
 3979SOL    HW123996   0.676   7.044   5.106
 3979SOL    HW223997   0.692   6.888   5.058
 3980SOL     OW23998   0.192   5.823   5.367
 3980SOL    HW123999   0.209   5.829   5.269
 3980SOL    HW224000   0.101   5.785   5.383
 3981SOL     OW24001   0.070   7.288   5.358
 3981SOL    HW124002   0.160   7.290   5.401
 3981SOL    HW224003   0.019   7.209   5.391
 3982SOL     OW24004   0.236   5.901   4.355
 3982SOL    HW124005   0.186   5.977   4.396
 3982SOL    HW224006   0.287   5.852   4.426
 3983SOL     OW24007   1.343   7.298   5.124
 3983SOL    HW124008   1.330   7.257   5.214
 3983SOL    HW224009   1.437   7.281   5.093
 3984SOL     OW24010   1.781   5.778   5.055
 3984SOL    HW124011   1.712   5.810   5.119
 3984SOL    HW224012   1.748   5.790   4.961
 3985SOL     OW24013   0.521   7.361   4.405
 3985SOL    HW124014   0.432   7.319   4.389
 3985SOL    HW224015   0.590   7.314   4.351
 3986SOL     OW24016   0.760   6.803   4.183
 3986SOL    HW124017   0.777   6.736   4.110
 3986SOL    HW224018   0.764   6.757   4.272
 3987SOL     OW24019   0.363   6.364   4.409
 3987SOL    HW124020   0.367   6.442   4.471
 3987SOL    HW224021   0.371   6.279   4.461
 3988SOL     OW24022   0.228   5.853   3.924
 3988SOL    HW124023   0.290   5.832   3.849
 3988SOL    HW224024   0.177   5.937   3.903
 3989SOL     OW24025   0.125   6.103   4.508
 3989SOL    HW124026   0.064   6.087   4.586
 3989SOL    HW224027   0.218   6.121   4.542
 3990SOL     OW24028   0.509   6.659   3.993
 3990SOL    HW124029   0.607   6.641   3.978
 3990SOL    HW224030   0.480   6.735   3.935
 3991SOL     OW24031   1.138   6.273   3.753
 3991SOL    HW124032   1.088   6.311   3.675
 3991SOL    HW224033   1.211   6.213   3.720
 3992SOL     OW24034   1.312   5.718   4.142
 3992SOL    HW124035   1.220   5.708   4.180
 3992SOL    HW224036   1.338   5.814   4.141
 3993SOL     OW24037   1.438   6.083   5.224
 3993SOL    HW124038   1.409   6.103   5.318
 3993SOL    HW224039   1.360   6.093   5.163
 3994SOL     OW24040   0.053   5.644   3.831
 3994SOL    HW124041   0.101   5.560   3.857
 3994SOL    HW224042   0.103   5.723   3.865
 3995SOL     OW24043   1.679   6.620   3.907
 3995SOL    HW124044   1.777   6.624   3.926
 3995SOL    HW224045   1.664   6.608   3.809
 3996SOL     OW24046   0.662   6.265   4.848
 3996SOL    HW124047   0.713   6.256   4.933
 3996SOL    HW224048   0.574   6.218   4.857
 3997SOL     OW24049   0.781   6.500   5.157
 3997SOL    HW124050   0.845   6.545   5.095
 3997SOL    HW224051   0.801   6.526   5.251
 3998SOL     OW24052   1.250   6.577   5.384
 3998SOL    HW124053   1.185   6.501   5.382
 3998SOL    HW224054   1.333   6.548   5.431
 3999SOL     OW24055   1.066   5.766   4.256
 3999SOL    HW124056   1.051   5.863   4.275
 3999SOL    HW224057   1.045   5.713   4.338
 4000SOL     OW24058   0.679   5.661   4.573
 4000SOL    HW124059   0.609   5.605   4.529
 4000SOL    HW224060   0.747   5.602   4.617
 4001SOL     OW24061   0.329   7.211   4.940
 4001SOL    HW124062   0.307   7.215   4.842
 4001SOL    HW224063   0.246   7.225   4.993
 4002SOL     OW24064   1.012   6.745   4.570
 4002SOL    HW124065   1.034   6.826   4.515
 4002SOL    HW224066   1.093   6.715   4.620
 4003SOL     OW24067   0.716   6.457   4.647
 4003SOL    HW124068   0.751   6.393   4.578
 4003SOL    HW224069   0.681   6.406   4.726
 4004SOL     OW24070   9.964   6.550   4.810
 4004SOL    HW124071   0.057   6.562   4.844
 4004SOL    HW224072   9.903   6.529   4.886
 4005SOL     OW24073   0.350   5.553   4.189
 4005SOL    HW124074   0.371   5.649   4.171
 4005SOL    HW224075   0.250   5.541   4.191
 4006SOL     OW24076   0.620   6.173   5.422
 4006SOL    HW124077   0.593   6.224   5.340
 4006SOL    HW224078   0.712   6.199   5.450
 4007SOL     OW24079   0.009   6.721   3.883
 4007SOL    HW124080   0.045   6.629   3.894
 4007SOL    HW224081   0.074   6.776   3.831
 4008SOL     OW24082   1.739   5.771   4.550
 4008SOL    HW124083   1.718   5.788   4.646
 4008SOL    HW224084   1.839   5.768   4.537
 4009SOL     OW24085   0.817   6.688   4.756
 4009SOL    HW124086   0.779   6.604   4.719
 4009SOL    HW224087   0.885   6.724   4.693
 4010SOL     OW24088   1.221   6.163   4.000
 4010SOL    HW124089   1.262   6.246   4.038
 4010SOL    HW224090   1.178   6.184   3.913
 4011SOL     OW24091   0.295   6.367   5.079
 4011SOL    HW124092   0.262   6.275   5.099
 4011SOL    HW224093   0.271   6.428   5.154
 4012SOL     OW24094   0.811   6.998   3.719
 4012SOL    HW124095   0.776   7.059   3.791
 4012SOL    HW224096   0.866   6.926   3.761
 4013SOL     OW24097   0.600   7.218   4.749
 4013SOL    HW124098   0.629   7.172   4.665
 4013SOL    HW224099   0.502   7.234   4.747
 4014SOL     OW24100   0.783   6.646   4.432
 4014SOL    HW124101   0.864   6.689   4.472
 4014SOL    HW224102   0.742   6.583   4.498
 4015SOL     OW24103   0.934   7.029   4.208
 4015SOL    HW124104   0.999   7.049   4.135
 4015SOL    HW224105   0.884   6.945   4.186
 4016SOL     OW24106   0.118   6.425   4.617
 4016SOL    HW124107   0.074   6.394   4.533
 4016SOL    HW224108   0.050   6.468   4.676
 4017SOL     OW24109   0.098   6.463   5.514
 4017SOL    HW124110   0.047   6.380   5.493
 4017SOL    HW224111   0.122   6.464   5.611
 4018SOL     OW24112   0.938   7.228   5.106
 4018SOL    HW124113   0.916   7.180   5.190
 4018SOL    HW224114   0.893   7.317   5.104
 4019SOL     OW24115   1.265   6.716   4.716
 4019SOL    HW124116   1.269   6.816   4.727
 4019SOL    HW224117   1.328   6.673   4.780
 4020SOL     OW24118   0.580   5.903   5.453
 4020SOL    HW124119   0.643   5.858   5.390
 4020SOL    HW224120   0.591   6.002   5.446
 4021SOL     OW24121   0.448   6.395   4.021
 4021SOL    HW124122   0.463   6.493   4.006
 4021SOL    HW224123   0.366   6.383   4.077
 4022SOL     OW24124   1.650   6.466   4.689
 4022SOL    HW124125   1.658   6.549   4.635
 4022SOL    HW224126   1.571   6.472   4.749
 4023SOL     OW24127   1.363   5.796   5.079
 4023SOL    HW124128   1.439   5.811   5.143
 4023SOL    HW224129   1.321   5.707   5.098
 4024SOL     OW24130   0.077   5.510   4.164
 4024SOL    HW124131   0.021   5.470   4.091
 4024SOL    HW224132   0.062   5.609   4.166
 4025SOL     OW24133   0.433   7.112   5.275
 4025SOL    HW124134   0.392   7.182   5.333
 4025SOL    HW224135   0.488   7.155   5.204
 4026SOL     OW24136   1.784   7.059   5.197
 4026SOL    HW124137   1.837   7.142   5.214
 4026SOL    HW224138   1.696   7.066   5.245
 4027SOL     OW24139   1.062   6.017   4.787
 4027SOL    HW124140   1.143   6.068   4.813
 4027SOL    HW224141   1.070   5.922   4.820
 4028SOL     OW24142   0.466   6.993   4.396
 4028SOL    HW124143   0.452   6.895   4.405
 4028SOL    HW224144   0.383   7.035   4.360
 4029SOL     OW24145   1.162   7.158   4.963
 4029SOL    HW124146   1.070   7.179   4.994
 4029SOL    HW224147   1.227   7.222   5.006
 4030SOL     OW24148   0.328   7.294   5.471
 4030SOL    HW124149   0.348   7.392   5.470
 4030SOL    HW224150   0.349   7.257   5.561
 4031SOL     OW24151   0.123   6.848   5.318
 4031SOL    HW124152   0.061   6.775   5.345
 4031SOL    HW224153   0.073   6.917   5.266
 4032SOL     OW24154   0.289   7.210   4.659
 4032SOL    HW124155   0.224   7.136   4.676
 4032SOL    HW224156   0.299   7.224   4.561
 4033SOL     OW24157   1.016   5.679   4.516
 4033SOL    HW124158   1.103   5.705   4.557
 4033SOL    HW224159   0.967   5.617   4.577
 4034SOL     OW24160   1.068   6.754   4.080
 4034SOL    HW124161   1.158   6.776   4.119
 4034SOL    HW224162   1.028   6.677   4.130
 4035SOL     OW24163   1.622   5.997   4.434
 4035SOL    HW124164   1.650   6.075   4.489
 4035SOL    HW224165   1.666   5.914   4.469
 4036SOL     OW24166   0.788   6.618   3.960
 4036SOL    HW124167   0.843   6.687   3.912
 4036SOL    HW224168   0.818   6.527   3.931
 4037SOL     OW24169   0.929   5.694   3.718
 4037SOL    HW124170   0.993   5.619   3.737
 4037SOL    HW224171   0.885   5.723   3.803
 4038SOL     OW24172   0.586   6.043   4.436
 4038SOL    HW124173   0.644   5.962   4.439
 4038SOL    HW224174   0.623   6.108   4.369
 4039SOL     OW24175   0.556   6.650   5.115
 4039SOL    HW124176   0.641   6.599   5.121
 4039SOL    HW224177   0.561   6.714   5.039
 4040SOL     OW24178   1.711   6.669   4.963
 4040SOL    HW124179   1.724   6.768   4.957
 4040SOL    HW224180   1.785   6.623   4.915
 4041SOL     OW24181   0.186   6.884   3.752
 4041SOL    HW124182   0.195   6.876   3.653
 4041SOL    HW224183   0.277   6.889   3.794
 4042SOL     OW24184   0.697   7.156   3.904
 4042SOL    HW124185   0.651   7.244   3.892
 4042SOL    HW224186   0.657   7.107   3.981
 4043SOL     OW24187   1.332   6.679   5.141
 4043SOL    HW124188   1.293   6.640   5.224
 4043SOL    HW224189   1.288   6.767   5.121
 4044SOL     OW24190   0.577   7.177   5.039
 4044SOL    HW124191   0.637   7.202   4.963
 4044SOL    HW224192   0.481   7.187   5.010
 4045SOL     OW24193   0.203   6.096   5.407
 4045SOL    HW124194   0.211   5.997   5.412
 4045SOL    HW224195   0.271   6.138   5.469
 4046SOL     OW24196   1.663   7.081   4.727
 4046SOL    HW124197   1.709   7.168   4.742
 4046SOL    HW224198   1.680   7.020   4.805
 4047SOL     OW24199   0.006   6.563   4.238
 4047SOL    HW124200   0.007   6.661   4.220
 4047SOL    HW224201   9.926   6.522   4.194
 4048SOL     OW24202   0.557   6.326   5.204
 4048SOL    HW124203   0.472   6.340   5.154
 4048SOL    HW224204   0.620   6.400   5.185
 4049SOL     OW24205   1.646   6.710   4.545
 4049SOL    HW124206   1.622   6.806   4.527
 4049SOL    HW224207   1.600   6.652   4.478
 4050SOL     OW24208   0.803   6.080   4.698
 4050SOL    HW124209   0.893   6.058   4.736
 4050SOL    HW224210   0.757   6.147   4.757
 4051SOL     OW24211   0.626   6.817   4.904
 4051SOL    HW124212   0.592   6.900   4.859
 4051SOL    HW224213   0.696   6.775   4.847
 4052SOL     OW24214   0.188   6.251   4.824
 4052SOL    HW124215   0.195   6.309   4.905
 4052SOL    HW224216   0.171   6.307   4.743
 4053SOL     OW24217   0.298   6.893   5.105
 4053SOL    HW124218   0.353   6.971   5.136
 4053SOL    HW224219   0.242   6.859   5.180
 4054SOL     OW24220   1.334   6.798   4.160
 4054SOL    HW124221   1.424   6.797   4.203
 4054SOL    HW224222   1.343   6.782   4.062
 4055SOL     OW24223   0.674   5.896   4.154
 4055SOL    HW124224   0.577   5.872   4.148
 4055SOL    HW224225   0.711   5.863   4.242
 4056SOL     OW24226   1.598   5.545   4.450
 4056SOL    HW124227   1.579   5.558   4.353
 4056SOL    HW224228   1.651   5.622   4.485
 4057SOL     OW24229   1.211   6.251   5.075
 4057SOL    HW124230   1.304   6.278   5.048
 4057SOL    HW224231   1.145   6.296   5.015
 4058SOL     OW24232   0.824   6.263   4.492
 4058SOL    HW124233   0.811   6.187   4.556
 4058SOL    HW224234   0.807   6.231   4.399
 4059SOL     OW24235   1.278   6.997   4.746
 4059SOL    HW124236   1.201   7.045   4.788
 4059SOL    HW224237   1.287   7.026   4.650
 4060SOL     OW24238   1.354   5.953   4.414
 4060SOL    HW124239   1.336   5.957   4.316
 4060SOL    HW224240   1.451   5.969   4.432
 4061SOL     OW24241   1.085   7.021   6.322
 4061SOL    HW124242   1.176   7.060   6.308
 4061SOL    HW224243   1.039   7.008   6.234
 4062SOL     OW24244   1.718   6.768   6.270
 4062SOL    HW124245   1.665   6.852   6.282
 4062SOL    HW224246   1.763   6.770   6.181
 4063SOL     OW24247   1.719   6.046   7.022
 4063SOL    HW124248   1.659   5.968   7.039
 4063SOL    HW224249   1.744   6.089   7.108
 4064SOL     OW24250   0.381   5.750   5.546
 4064SOL    HW124251   0.306   5.768   5.483
 4064SOL    HW224252   0.461   5.805   5.521
 4065SOL     OW24253   1.342   7.128   6.307
 4065SOL    HW124254   1.357   7.221   6.340
 4065SOL    HW224255   1.430   7.083   6.292
 4066SOL     OW24256   1.194   5.616   6.840
 4066SOL    HW124257   1.128   5.560   6.891
 4066SOL    HW224258   1.249   5.557   6.781
 4067SOL     OW24259   0.553   7.033   5.901
 4067SOL    HW124260   0.498   7.071   5.976
 4067SOL    HW224261   0.615   6.963   5.937
 4068SOL     OW24262   0.550   5.557   5.675
 4068SOL    HW124263   0.647   5.581   5.673
 4068SOL    HW224264   0.497   5.633   5.639
 4069SOL     OW24265   1.562   6.635   6.742
 4069SOL    HW124266   1.639   6.633   6.805
 4069SOL    HW224267   1.530   6.729   6.730
 4070SOL     OW24268   0.489   6.762   6.270
 4070SOL    HW124269   0.432   6.714   6.337
 4070SOL    HW224270   0.585   6.736   6.284
 4071SOL     OW24271   0.767   6.138   6.043
 4071SOL    HW124272   0.774   6.233   6.013
 4071SOL    HW224273   0.778   6.077   5.965
 4072SOL     OW24274   1.338   5.922   7.213
 4072SOL    HW124275   1.404   5.971   7.270
 4072SOL    HW224276   1.248   5.964   7.223
 4073SOL     OW24277   0.401   6.913   5.701
 4073SOL    HW124278   0.441   6.922   5.610
 4073SOL    HW224279   0.456   6.963   5.768
 4074SOL     OW24280   0.591   5.837   6.541
 4074SOL    HW124281   0.657   5.911   6.554
 4074SOL    HW224282   0.634   5.761   6.492
 4075SOL     OW24283   0.249   6.367   6.022
 4075SOL    HW124284   0.297   6.380   6.109
 4075SOL    HW224285   0.151   6.381   6.036
 4076SOL     OW24286   0.858   7.220   6.219
 4076SOL    HW124287   0.891   7.145   6.162
 4076SOL    HW224288   0.926   7.293   6.220
 4077SOL     OW24289   1.838   7.222   5.912
 4077SOL    HW124290   1.911   7.154   5.901
 4077SOL    HW224291   1.876   7.309   5.942
 4078SOL     OW24292   1.761   5.820   6.684
 4078SOL    HW124293   1.795   5.911   6.707
 4078SOL    HW224294   1.661   5.821   6.680
 4079SOL     OW24295   1.062   5.844   5.870
 4079SOL    HW124296   1.101   5.936   5.866
 4079SOL    HW224297   1.077   5.806   5.961
 4080SOL     OW24298   0.239   6.570   7.140
 4080SOL    HW124299   0.317   6.628   7.164
 4080SOL    HW224300   0.182   6.555   7.221
 4081SOL     OW24301   0.391   6.221   5.570
 4081SOL    HW124302   0.393   6.321   5.574
 4081SOL    HW224303   0.474   6.188   5.524
 4082SOL     OW24304   0.688   7.138   6.414
 4082SOL    HW124305   0.753   7.172   6.346
 4082SOL    HW224306   0.616   7.085   6.368
 4083SOL     OW24307   0.908   6.198   7.215
 4083SOL    HW124308   0.965   6.120   7.242
 4083SOL    HW224309   0.949   6.282   7.248
 4084SOL     OW24310   1.599   7.020   6.316
 4084SOL    HW124311   1.623   7.045   6.410
 4084SOL    HW224312   1.657   7.072   6.253
 4085SOL     OW24313   0.353   6.786   6.032
 4085SOL    HW124314   0.405   6.776   6.117
 4085SOL    HW224315   0.397   6.733   5.959
 4086SOL     OW24316   0.372   6.044   6.815
 4086SOL    HW124317   0.378   5.948   6.786
 4086SOL    HW224318   0.318   6.095   6.749
 4087SOL     OW24319   0.380   5.812   5.987
 4087SOL    HW124320   0.330   5.851   6.064
 4087SOL    HW224321   0.328   5.829   5.903
 4088SOL     OW24322   1.507   7.327   6.921
 4088SOL    HW124323   1.456   7.295   6.841
 4088SOL    HW224324   1.567   7.402   6.894
 4089SOL     OW24325   1.827   6.072   6.774
 4089SOL    HW124326   1.905   6.135   6.778
 4089SOL    HW224327   1.784   6.065   6.864
 4090SOL     OW24328   1.885   7.299   6.648
 4090SOL    HW124329   1.888   7.298   6.748
 4090SOL    HW224330   1.976   7.276   6.612
 4091SOL     OW24331   0.975   6.013   6.176
 4091SOL    HW124332   1.036   6.086   6.208
 4091SOL    HW224333   0.898   6.053   6.128
 4092SOL     OW24334   1.062   5.982   7.299
 4092SOL    HW124335   1.112   5.963   7.384
 4092SOL    HW224336   1.000   5.907   7.280
 4093SOL     OW24337   0.790   5.570   7.253
 4093SOL    HW124338   0.812   5.476   7.226
 4093SOL    HW224339   0.792   5.578   7.352
 4094SOL     OW24340   1.725   6.161   6.535
 4094SOL    HW124341   1.690   6.254   6.549
 4094SOL    HW224342   1.756   6.124   6.623
 4095SOL     OW24343   0.728   6.589   7.270
 4095SOL    HW124344   0.639   6.634   7.270
 4095SOL    HW224345   0.737   6.533   7.353
 4096SOL     OW24346   1.375   5.489   6.402
 4096SOL    HW124347   1.302   5.550   6.372
 4096SOL    HW224348   1.463   5.522   6.366
 4097SOL     OW24349   1.731   5.722   7.317
 4097SOL    HW124350   1.702   5.761   7.405
 4097SOL    HW224351   1.714   5.623   7.317
 4098SOL     OW24352   9.961   6.189   6.120
 4098SOL    HW124353   0.020   6.153   6.192
 4098SOL    HW224354   9.968   6.289   6.117
 4099SOL     OW24355   0.390   5.758   6.350
 4099SOL    HW124356   0.451   5.794   6.421
 4099SOL    HW224357   0.420   5.666   6.324
 4100SOL     OW24358   0.410   5.773   6.742
 4100SOL    HW124359   0.402   5.673   6.744
 4100SOL    HW224360   0.475   5.799   6.670
 4101SOL     OW24361   1.005   6.319   6.216
 4101SOL    HW124362   0.979   6.406   6.174
 4101SOL    HW224363   0.936   6.292   6.283
 4102SOL     OW24364   0.254   7.034   5.959
 4102SOL    HW124365   0.284   6.942   5.982
 4102SOL    HW224366   0.257   7.046   5.860
 4103SOL     OW24367   1.508   6.908   6.740
 4103SOL    HW124368   1.478   6.958   6.659
 4103SOL    HW224369   1.439   6.917   6.812
 4104SOL     OW24370   0.245   7.171   6.196
 4104SOL    HW124371   0.151   7.180   6.228
 4104SOL    HW224372   0.245   7.134   6.103
 4105SOL     OW24373   1.779   6.960   6.769
 4105SOL    HW124374   1.807   6.988   6.860
 4105SOL    HW224375   1.680   6.940   6.768
 4106SOL     OW24376   0.449   6.492   5.573
 4106SOL    HW124377   0.445   6.548   5.490
 4106SOL    HW224378   0.429   6.550   5.652
 4107SOL     OW24379   0.127   6.454   5.784
 4107SOL    HW124380   0.196   6.444   5.856
 4107SOL    HW224381   0.060   6.380   5.792
 4108SOL     OW24382   0.874   7.380   6.544
 4108SOL    HW124383   0.924   7.293   6.547
 4108SOL    HW224384   0.791   7.373   6.599
 4109SOL     OW24385   0.719   6.449   5.619
 4109SOL    HW124386   0.752   6.358   5.643
 4109SOL    HW224387   0.620   6.445   5.602
 4110SOL     OW24388   0.195   6.171   6.997
 4110SOL    HW124389   0.253   6.108   6.946
 4110SOL    HW224390   0.199   6.148   7.095
 4111SOL     OW24391   0.232   5.760   6.965
 4111SOL    HW124392   0.292   5.784   6.888
 4111SOL    HW224393   0.197   5.668   6.952
 4112SOL     OW24394   0.949   7.113   6.547
 4112SOL    HW124395   1.006   7.082   6.471
 4112SOL    HW224396   0.853   7.098   6.524
 4113SOL     OW24397   0.813   5.970   5.831
 4113SOL    HW124398   0.745   5.909   5.871
 4113SOL    HW224399   0.903   5.926   5.835
 4114SOL     OW24400   0.933   6.819   5.680
 4114SOL    HW124401   0.990   6.809   5.761
 4114SOL    HW224402   0.988   6.803   5.598
 4115SOL     OW24403   1.760   7.189   6.179
 4115SOL    HW124404   1.723   7.270   6.223
 4115SOL    HW224405   1.765   7.203   6.080
 4116SOL     OW24406   0.838   7.133   7.180
 4116SOL    HW124407   0.786   7.085   7.109
 4116SOL    HW224408   0.830   7.084   7.266
 4117SOL     OW24409   0.323   6.621   6.443
 4117SOL    HW124410   0.229   6.647   6.421
 4117SOL    HW224411   0.331   6.606   6.542
 4118SOL     OW24412   0.921   6.552   6.069
 4118SOL    HW124413   0.867   6.492   6.010
 4118SOL    HW224414   0.861   6.596   6.136
 4119SOL     OW24415   1.294   6.956   6.899
 4119SOL    HW124416   1.324   7.008   6.979
 4119SOL    HW224417   1.213   6.999   6.860
 4120SOL     OW24418   0.074   5.765   5.997
 4120SOL    HW124419   0.098   5.811   5.912
 4120SOL    HW224420   0.112   5.816   6.074
 4121SOL     OW24421   1.696   7.425   5.772
 4121SOL    HW124422   1.779   7.471   5.742
 4121SOL    HW224423   1.717   7.331   5.798
 4122SOL     OW24424   0.775   6.258   6.974
 4122SOL    HW124425   0.784   6.357   6.974
 4122SOL    HW224426   0.825   6.220   7.051
 4123SOL     OW24427   0.107   7.292   6.854
 4123SOL    HW124428   0.066   7.360   6.915
 4123SOL    HW224429   0.078   7.201   6.882
 4124SOL     OW24430   0.769   6.380   5.920
 4124SOL    HW124431   0.670   6.393   5.914
 4124SOL    HW224432   0.802   6.333   5.838
 4125SOL     OW24433   0.375   6.168   6.400
 4125SOL    HW124434   0.454   6.135   6.348
 4125SOL    HW224435   0.394   6.159   6.498
 4126SOL     OW24436   0.402   7.232   5.735
 4126SOL    HW124437   0.471   7.180   5.785
 4126SOL    HW224438   0.362   7.301   5.795
 4127SOL     OW24439   1.358   7.271   6.689
 4127SOL    HW124440   1.385   7.319   6.605
 4127SOL    HW224441   1.338   7.175   6.668
 4128SOL     OW24442   0.047   6.662   6.447
 4128SOL    HW124443   9.968   6.682   6.388
 4128SOL    HW224444   0.014   6.640   6.539
 4129SOL     OW24445   0.771   5.569   5.963
 4129SOL    HW124446   0.783   5.564   5.863
 4129SOL    HW224447   0.727   5.656   5.986
 4130SOL     OW24448   0.093   6.700   6.045
 4130SOL    HW124449   0.186   6.735   6.055
 4130SOL    HW224450   0.061   6.715   5.951
 4131SOL     OW24451   1.579   5.820   7.106
 4131SOL    HW124452   1.490   5.855   7.134
 4131SOL    HW224453   1.633   5.800   7.188
 4132SOL     OW24454   1.577   5.540   7.096
 4132SOL    HW124455   1.568   5.499   7.005
 4132SOL    HW224456   1.560   5.639   7.089
 4133SOL     OW24457   0.742   5.867   6.245
 4133SOL    HW124458   0.734   5.781   6.295
 4133SOL    HW224459   0.838   5.897   6.245
 4134SOL     OW24460   1.587   5.588   6.007
 4134SOL    HW124461   1.610   5.547   5.918
 4134SOL    HW224462   1.490   5.614   6.007
 4135SOL     OW24463   0.537   6.956   7.327
 4135SOL    HW124464   0.505   7.030   7.268
 4135SOL    HW224465   0.633   6.969   7.348
 4136SOL     OW24466   0.472   6.702   7.236
 4136SOL    HW124467   0.493   6.694   7.139
 4136SOL    HW224468   0.487   6.796   7.266
 4137SOL     OW24469   0.122   6.897   6.612
 4137SOL    HW124470   0.113   6.827   6.541
 4137SOL    HW224471   0.040   6.897   6.669
 4138SOL     OW24472   1.785   6.126   7.282
 4138SOL    HW124473   1.783   6.212   7.334
 4138SOL    HW224474   1.879   6.091   7.279
 4139SOL     OW24475   1.489   5.852   6.677
 4139SOL    HW124476   1.506   5.880   6.582
 4139SOL    HW224477   1.393   5.869   6.700
 4140SOL     OW24478   1.545   6.011   7.362
 4140SOL    HW124479   1.629   6.056   7.330
 4140SOL    HW224480   1.567   5.949   7.437
 4141SOL     OW24481   1.196   6.284   6.024
 4141SOL    HW124482   1.126   6.296   6.095
 4141SOL    HW224483   1.286   6.308   6.062
 4142SOL     OW24484   1.713   5.803   5.703
 4142SOL    HW124485   1.767   5.842   5.778
 4142SOL    HW224486   1.669   5.719   5.735
 4143SOL     OW24487   0.695   7.029   6.977
 4143SOL    HW124488   0.639   7.109   6.958
 4143SOL    HW224489   0.675   6.957   6.910
 4144SOL     OW24490   0.187   5.836   7.223
 4144SOL    HW124491   0.211   5.817   7.128
 4144SOL    HW224492   0.096   5.800   7.242
 4145SOL     OW24493   0.052   7.345   7.224
 4145SOL    HW124494   0.148   7.347   7.252
 4145SOL    HW224495   0.010   7.260   7.256
 4146SOL     OW24496   0.217   5.895   6.193
 4146SOL    HW124497   0.172   5.970   6.241
 4146SOL    HW224498   0.274   5.844   6.258
 4147SOL     OW24499   1.381   7.139   7.095
 4147SOL    HW124500   1.310   7.190   7.143
 4147SOL    HW224501   1.430   7.199   7.032
 4148SOL     OW24502   0.254   6.127   5.790
 4148SOL    HW124503   0.304   6.162   5.711
 4148SOL    HW224504   0.284   6.176   5.872
 4149SOL     OW24505   1.793   5.737   6.941
 4149SOL    HW124506   1.712   5.767   6.992
 4149SOL    HW224507   1.779   5.756   6.844
 4150SOL     OW24508   0.465   7.333   6.286
 4150SOL    HW124509   0.377   7.300   6.252
 4150SOL    HW224510   0.531   7.259   6.285
 4151SOL     OW24511   0.347   6.860   6.767
 4151SOL    HW124512   0.340   6.900   6.859
 4151SOL    HW224513   0.271   6.891   6.711
 4152SOL     OW24514   0.704   6.823   6.017
 4152SOL    HW124515   0.718   6.762   5.939
 4152SOL    HW224516   0.708   6.770   6.102
 4153SOL     OW24517   0.357   6.408   6.265
 4153SOL    HW124518   0.347   6.484   6.329
 4153SOL    HW224519   0.362   6.322   6.317
 4154SOL     OW24520   0.227   5.854   5.759
 4154SOL    HW124521   0.287   5.821   5.686
 4154SOL    HW224522   0.230   5.954   5.762
 4155SOL     OW24523   0.113   6.114   6.337
 4155SOL    HW124524   0.064   6.091   6.421
 4155SOL    HW224525   0.209   6.134   6.359
 4156SOL     OW24526   0.461   6.668   5.799
 4156SOL    HW124527   0.561   6.673   5.795
 4156SOL    HW224528   0.422   6.751   5.760
 4157SOL     OW24529   1.118   6.217   5.591
 4157SOL    HW124530   1.093   6.290   5.527
 4157SOL    HW224531   1.204   6.176   5.563
 4158SOL     OW24532   0.847   6.216   5.698
 4158SOL    HW124533   0.943   6.217   5.670
 4158SOL    HW224534   0.825   6.126   5.737
 4159SOL     OW24535   1.322   5.653   5.992
 4159SOL    HW124536   1.250   5.696   6.047
 4159SOL    HW224537   1.294   5.652   5.896
 4160SOL     OW24538   0.045   5.654   5.673
 4160SOL    HW124539   0.065   5.573   5.727
 4160SOL    HW224540   0.103   5.730   5.703
 4161SOL     OW24541   0.291   6.595   6.721
 4161SOL    HW124542   0.314   6.532   6.795
 4161SOL    HW224543   0.321   6.687   6.746
 4162SOL     OW24544   0.617   6.171   6.762
 4162SOL    HW124545   0.673   6.201   6.839
 4162SOL    HW224546   0.532   6.130   6.797
 4163SOL     OW24547   0.779   6.526   7.015
 4163SOL    HW124548   0.837   6.596   6.974
 4163SOL    HW224549   0.766   6.546   7.112
 4164SOL     OW24550   1.107   5.771   6.135
 4164SOL    HW124551   1.063   5.859   6.154
 4164SOL    HW224552   1.106   5.716   6.219
 4165SOL     OW24553   1.168   7.292   7.232
 4165SOL    HW124554   1.107   7.275   7.155
 4165SOL    HW224555   1.204   7.385   7.226
 4166SOL     OW24556   0.694   5.639   6.378
 4166SOL    HW124557   0.629   5.579   6.331
 4166SOL    HW224558   0.768   5.584   6.417
 4167SOL     OW24559   0.372   7.344   6.769
 4167SOL    HW124560   0.368   7.437   6.733
 4167SOL    HW224561   0.281   7.315   6.797
 4168SOL     OW24562   0.978   6.790   6.427
 4168SOL    HW124563   1.007   6.876   6.384
 4168SOL    HW224564   1.052   6.756   6.486
 4169SOL     OW24565   0.693   6.486   6.447
 4169SOL    HW124566   0.743   6.401   6.432
 4169SOL    HW224567   0.602   6.466   6.483
 4170SOL     OW24568   0.010   6.603   6.713
 4170SOL    HW124569   0.110   6.599   6.719
 4170SOL    HW224570   9.970   6.530   6.768
 4171SOL     OW24571   0.332   5.542   6.020
 4171SOL    HW124572   0.354   5.638   6.006
 4171SOL    HW224573   0.234   5.531   6.034
 4172SOL     OW24574   0.637   6.173   7.290
 4172SOL    HW124575   0.587   6.220   7.216
 4172SOL    HW224576   0.735   6.181   7.273
 4173SOL     OW24577   0.035   6.715   5.776
 4173SOL    HW124578   0.073   6.623   5.766
 4173SOL    HW224579   0.072   6.774   5.703
 4174SOL     OW24580   1.812   5.734   6.418
 4174SOL    HW124581   1.804   5.749   6.517
 4174SOL    HW224582   1.908   5.732   6.392
 4175SOL     OW24583   0.738   6.739   6.565
 4175SOL    HW124584   0.724   6.645   6.535
 4175SOL    HW224585   0.824   6.773   6.527
 4176SOL     OW24586   1.136   6.100   5.837
 4176SOL    HW124587   1.160   6.165   5.909
 4176SOL    HW224588   1.134   6.147   5.749
 4177SOL     OW24589   0.302   6.408   6.928
 4177SOL    HW124590   0.261   6.321   6.955
 4177SOL    HW224591   0.288   6.475   7.001
 4178SOL     OW24592   0.747   6.995   5.574
 4178SOL    HW124593   0.729   7.065   5.643
 4178SOL    HW224594   0.814   6.930   5.609
 4179SOL     OW24595   0.624   7.305   6.632
 4179SOL    HW124596   0.631   7.234   6.562
 4179SOL    HW224597   0.531   7.304   6.671
 4180SOL     OW24598   0.769   6.678   6.263
 4180SOL    HW124599   0.842   6.728   6.309
 4180SOL    HW224600   0.738   6.602   6.321
 4181SOL     OW24601   0.933   6.964   6.099
 4181SOL    HW124602   0.992   6.909   6.039
 4181SOL    HW224603   0.838   6.938   6.084
 4182SOL     OW24604   0.115   6.379   6.473
 4182SOL    HW124605   0.088   6.317   6.398
 4182SOL    HW224606   0.093   6.473   6.447
 4183SOL     OW24607   0.073   6.533   7.360
 4183SOL    HW124608   0.038   6.446   7.324
 4183SOL    HW224609   0.103   6.520   7.454
 4184SOL     OW24610   0.989   7.273   7.001
 4184SOL    HW124611   0.939   7.212   7.062
 4184SOL    HW224612   0.928   7.346   6.970
 4185SOL     OW24613   1.222   6.775   6.587
 4185SOL    HW124614   1.210   6.797   6.684
 4185SOL    HW224615   1.297   6.709   6.577
 4186SOL     OW24616   0.584   5.903   7.307
 4186SOL    HW124617   0.638   5.861   7.234
 4186SOL    HW224618   0.602   6.001   7.309
 4187SOL     OW24619   0.499   6.417   5.904
 4187SOL    HW124620   0.480   6.508   5.867
 4187SOL    HW224621   0.419   6.384   5.954
 4188SOL     OW24622   1.652   6.431   6.576
 4188SOL    HW124623   1.625   6.461   6.485
 4188SOL    HW224624   1.610   6.490   6.645
 4189SOL     OW24625   1.234   5.883   6.820
 4189SOL    HW124626   1.296   5.908   6.894
 4189SOL    HW224627   1.215   5.784   6.825
 4190SOL     OW24628   0.058   5.499   6.040
 4190SOL    HW124629   0.009   5.457   5.963
 4190SOL    HW224630   0.047   5.598   6.036
 4191SOL     OW24631   1.302   5.662   7.294
 4191SOL    HW124632   1.331   5.658   7.390
 4191SOL    HW224633   1.314   5.755   7.260
 4192SOL     OW24634   0.442   7.165   7.176
 4192SOL    HW124635   0.392   7.233   7.229
 4192SOL    HW224636   0.490   7.209   7.101
 4193SOL     OW24637   1.854   6.975   7.034
 4193SOL    HW124638   1.851   7.057   7.091
 4193SOL    HW224639   1.812   6.898   7.083
 4194SOL     OW24640   0.988   6.006   6.777
 4194SOL    HW124641   0.993   6.087   6.835
 4194SOL    HW224642   1.074   5.956   6.783
 4195SOL     OW24643   0.488   7.038   6.252
 4195SOL    HW124644   0.483   6.939   6.257
 4195SOL    HW224645   0.395   7.076   6.240
 4196SOL     OW24646   1.075   7.084   6.799
 4196SOL    HW124647   1.030   7.145   6.864
 4196SOL    HW224648   1.030   7.092   6.709
 4197SOL     OW24649   0.305   7.353   7.335
 4197SOL    HW124650   0.328   7.450   7.338
 4197SOL    HW224651   0.300   7.317   7.428
 4198SOL     OW24652   0.091   6.918   7.141
 4198SOL    HW124653   0.027   6.845   7.167
 4198SOL    HW224654   0.046   6.981   7.078
 4199SOL     OW24655   1.110   5.647   6.391
 4199SOL    HW124656   1.140   5.713   6.460
 4199SOL    HW224657   1.033   5.594   6.426
 4200SOL     OW24658   1.050   6.761   5.936
 4200SOL    HW124659   1.149   6.747   5.943
 4200SOL    HW224660   1.002   6.684   5.979
 4201SOL     OW24661   1.604   5.926   6.438
 4201SOL    HW124662   1.643   6.016   6.459
 4201SOL    HW224663   1.676   5.863   6.410
 4202SOL     OW24664   0.731   6.672   5.784
 4202SOL    HW124665   0.801   6.732   5.746
 4202SOL    HW224666   0.735   6.583   5.739
 4203SOL     OW24667   0.821   5.590   5.672
 4203SOL    HW124668   0.874   5.514   5.709
 4203SOL    HW224669   0.880   5.668   5.656
 4204SOL     OW24670   0.598   6.098   6.257
 4204SOL    HW124671   0.629   6.004   6.275
 4204SOL    HW224672   0.632   6.128   6.169
 4205SOL     OW24673   0.538   6.657   6.980
 4205SOL    HW124674   0.613   6.592   6.981
 4205SOL    HW224675   0.558   6.730   6.914
 4206SOL     OW24676   1.804   6.698   6.864
 4206SOL    HW124677   1.811   6.794   6.836
 4206SOL    HW224678   1.848   6.640   6.796
 4207SOL     OW24679   0.151   6.881   5.590
 4207SOL    HW124680   0.158   6.864   5.491
 4207SOL    HW224681   0.243   6.896   5.627
 4208SOL     OW24682   0.562   7.273   6.954
 4208SOL    HW124683   0.641   7.332   6.937
 4208SOL    HW224684   0.490   7.293   6.887
 4209SOL     OW24685   0.210   6.109   7.263
 4209SOL    HW124686   0.208   6.009   7.260
 4209SOL    HW224687   0.283   6.140   7.324
 4210SOL     OW24688   1.697   7.114   6.553
 4210SOL    HW124689   1.747   7.201   6.564
 4210SOL    HW224690   1.723   7.051   6.625
 4211SOL     OW24691   9.982   6.459   6.094
 4211SOL    HW124692   0.031   6.546   6.089
 4211SOL    HW224693   9.886   6.474   6.070
 4212SOL     OW24694   0.522   6.300   7.079
 4212SOL    HW124695   0.453   6.345   7.022
 4212SOL    HW224696   0.606   6.289   7.027
 4213SOL     OW24697   0.783   6.041   6.595
 4213SOL    HW124698   0.862   6.016   6.650
 4213SOL    HW224699   0.718   6.093   6.651
 4214SOL     OW24700   0.618   6.840   6.789
 4214SOL    HW124701   0.522   6.857   6.767
 4214SOL    HW224702   0.666   6.810   6.707
 4215SOL     OW24703   0.236   6.239   6.672
 4215SOL    HW124704   0.262   6.301   6.746
 4215SOL    HW224705   0.194   6.292   6.598
 4216SOL     OW24706   0.330   6.962   7.018
 4216SOL    HW124707   0.376   7.034   7.070
 4216SOL    HW224708   0.244   6.938   7.064
 4217SOL     OW24709   1.601   7.211   7.325
 4217SOL    HW124710   1.551   7.129   7.298
 4217SOL    HW224711   1.564   7.291   7.279
 4218SOL     OW24712   0.652   5.817   5.993
 4218SOL    HW124713   0.552   5.814   5.988
 4218SOL    HW224714   0.680   5.840   6.086
 4219SOL     OW24715   1.621   5.568   6.288
 4219SOL    HW124716   1.607   5.593   6.192
 4219SOL    HW224717   1.685   5.631   6.330
 4220SOL     OW24718   0.799   6.235   6.391
 4220SOL    HW124719   0.817   6.173   6.468
 4220SOL    HW224720   0.727   6.197   6.334
 4221SOL     OW24721   1.332   7.026   6.560
 4221SOL    HW124722   1.278   6.942   6.560
 4221SOL    HW224723   1.334   7.064   6.468
 4222SOL     OW24724   1.075   7.003   8.123
 4222SOL    HW124725   1.168   7.039   8.134
 4222SOL    HW224726   1.045   7.018   8.029
 4223SOL     OW24727   1.620   6.811   7.944
 4223SOL    HW124728   1.605   6.867   8.026
 4223SOL    HW224729   1.717   6.785   7.939
 4224SOL     OW24730   1.663   6.196   8.756
 4224SOL    HW124731   1.600   6.148   8.817
 4224SOL    HW224732   1.738   6.235   8.810
 4225SOL     OW24733   0.381   5.748   7.390
 4225SOL    HW124734   0.305   5.772   7.329
 4225SOL    HW224735   0.462   5.803   7.365
 4226SOL     OW24736   1.328   7.100   8.187
 4226SOL    HW124737   1.342   7.196   8.213
 4226SOL    HW224738   1.415   7.060   8.158
 4227SOL     OW24739   1.212   5.615   8.723
 4227SOL    HW124740   1.134   5.561   8.755
 4227SOL    HW224741   1.260   5.564   8.652
 4228SOL     OW24742   0.982   6.408   9.127
 4228SOL    HW124743   0.965   6.348   9.049
 4228SOL    HW224744   0.894   6.431   9.169
 4229SOL     OW24745   0.555   7.023   7.799
 4229SOL    HW124746   0.515   7.058   7.884
 4229SOL    HW224747   0.631   6.962   7.820
 4230SOL     OW24748   0.543   5.561   7.525
 4230SOL    HW124749   0.638   5.591   7.525
 4230SOL    HW224750   0.486   5.630   7.483
 4231SOL     OW24751   1.571   6.593   8.927
 4231SOL    HW124752   1.477   6.612   8.900
 4231SOL    HW224753   1.631   6.605   8.849
 4232SOL     OW24754   1.401   6.597   8.601
 4232SOL    HW124755   1.353   6.600   8.689
 4232SOL    HW224756   1.451   6.682   8.587
 4233SOL     OW24757   0.994   6.891   8.839
 4233SOL    HW124758   0.909   6.942   8.833
 4233SOL    HW224759   0.989   6.810   8.780
 4234SOL     OW24760   0.497   6.775   8.108
 4234SOL    HW124761   0.450   6.721   8.178
 4234SOL    HW224762   0.594   6.754   8.108
 4235SOL     OW24763   0.757   6.140   7.952
 4235SOL    HW124764   0.763   6.224   7.898
 4235SOL    HW224765   0.726   6.065   7.893
 4236SOL     OW24766   1.280   6.077   9.126
 4236SOL    HW124767   1.371   6.048   9.157
 4236SOL    HW224768   1.220   5.998   9.118
 4237SOL     OW24769   0.411   6.937   7.569
 4237SOL    HW124770   0.461   6.954   7.484
 4237SOL    HW224771   0.460   6.980   7.645
 4238SOL     OW24772   0.599   5.849   8.384
 4238SOL    HW124773   0.661   5.928   8.385
 4238SOL    HW224774   0.646   5.771   8.343
 4239SOL     OW24775   0.243   6.372   7.863
 4239SOL    HW124776   0.278   6.379   7.956
 4239SOL    HW224777   0.143   6.381   7.864
 4240SOL     OW24778   0.787   7.206   8.000
 4240SOL    HW124779   0.856   7.149   7.955
 4240SOL    HW224780   0.773   7.290   7.948
 4241SOL     OW24781   1.802   7.183   7.817
 4241SOL    HW124782   1.893   7.142   7.806
 4241SOL    HW224783   1.764   7.204   7.727
 4242SOL     OW24784   1.673   5.863   8.489
 4242SOL    HW124785   1.703   5.959   8.491
 4242SOL    HW224786   1.573   5.860   8.498
 4243SOL     OW24787   1.054   5.877   7.745
 4243SOL    HW124788   1.068   5.971   7.776
 4243SOL    HW224789   1.066   5.814   7.822
 4244SOL     OW24790   0.229   6.592   8.947
 4244SOL    HW124791   0.309   6.644   8.977
 4244SOL    HW224792   0.177   6.563   9.028
 4245SOL     OW24793   0.405   6.224   7.432
 4245SOL    HW124794   0.404   6.324   7.431
 4245SOL    HW224795   0.490   6.191   7.391
 4246SOL     OW24796   0.666   7.121   8.226
 4246SOL    HW124797   0.716   7.157   8.147
 4246SOL    HW224798   0.584   7.073   8.194
 4247SOL     OW24799   0.971   6.171   8.964
 4247SOL    HW124800   1.011   6.097   9.018
 4247SOL    HW224801   1.039   6.207   8.901
 4248SOL     OW24802   1.591   6.953   8.187
 4248SOL    HW124803   1.613   6.982   8.280
 4248SOL    HW224804   1.610   7.028   8.123
 4249SOL     OW24805   0.345   6.762   7.880
 4249SOL    HW124806   0.403   6.764   7.962
 4249SOL    HW224807   0.397   6.726   7.803
 4250SOL     OW24808   1.204   5.908   7.522
 4250SOL    HW124809   1.283   5.848   7.514
 4250SOL    HW224810   1.149   5.882   7.601
 4251SOL     OW24811   0.402   6.044   8.629
 4251SOL    HW124812   0.398   5.947   8.608
 4251SOL    HW224813   0.326   6.091   8.584
 4252SOL     OW24814   1.407   6.328   8.694
 4252SOL    HW124815   1.415   6.423   8.666
 4252SOL    HW224816   1.494   6.297   8.732
 4253SOL     OW24817   0.400   5.815   7.826
 4253SOL    HW124818   0.348   5.850   7.905
 4253SOL    HW224819   0.346   5.828   7.743
 4254SOL     OW24820   1.542   7.269   8.699
 4254SOL    HW124821   1.463   7.281   8.639
 4254SOL    HW224822   1.625   7.264   8.645
 4255SOL     OW24823   1.767   6.119   8.518
 4255SOL    HW124824   1.866   6.115   8.530
 4255SOL    HW224825   1.725   6.151   8.603
 4256SOL     OW24826   1.794   7.261   8.560
 4256SOL    HW124827   1.829   7.294   8.647
 4256SOL    HW224828   1.870   7.244   8.497
 4257SOL     OW24829   0.993   6.007   8.026
 4257SOL    HW124830   1.046   6.055   8.095
 4257SOL    HW224831   0.915   6.062   7.999
 4258SOL     OW24832   1.330   6.582   7.681
 4258SOL    HW124833   1.327   6.482   7.685
 4258SOL    HW224834   1.237   6.619   7.685
 4259SOL     OW24835   1.090   5.877   9.118
 4259SOL    HW124836   1.088   5.853   9.216
 4259SOL    HW224837   1.015   5.831   9.071
 4260SOL     OW24838   1.775   6.199   7.744
 4260SOL    HW124839   1.723   6.117   7.770
 4260SOL    HW224840   1.840   6.221   7.817
 4261SOL     OW24841   0.994   7.338   7.461
 4261SOL    HW124842   1.050   7.321   7.379
 4261SOL    HW224843   1.015   7.268   7.530
 4262SOL     OW24844   0.816   5.576   9.087
 4262SOL    HW124845   0.831   5.479   9.070
 4262SOL    HW224846   0.823   5.595   9.185
 4263SOL     OW24847   1.577   6.204   8.340
 4263SOL    HW124848   1.563   6.303   8.345
 4263SOL    HW224849   1.651   6.178   8.402
 4264SOL     OW24850   1.104   6.866   9.114
 4264SOL    HW124851   1.142   6.773   9.112
 4264SOL    HW224852   1.053   6.884   9.030
 4265SOL     OW24853   0.786   6.674   9.112
 4265SOL    HW124854   0.734   6.757   9.133
 4265SOL    HW224855   0.772   6.606   9.184
 4266SOL     OW24856   1.402   5.511   8.267
 4266SOL    HW124857   1.354   5.598   8.276
 4266SOL    HW224858   1.486   5.525   8.215
 4267SOL     OW24859   1.751   5.745   9.166
 4267SOL    HW124860   1.703   5.770   9.251
 4267SOL    HW224861   1.746   5.645   9.154
 4268SOL     OW24862   9.954   6.181   7.959
 4268SOL    HW124863   0.013   6.141   8.029
 4268SOL    HW224864   9.963   6.281   7.960
 4269SOL     OW24865   0.410   5.757   8.188
 4269SOL    HW124866   0.465   5.792   8.264
 4269SOL    HW224867   0.452   5.673   8.153
 4270SOL     OW24868   0.417   5.768   8.576
 4270SOL    HW124869   0.410   5.669   8.576
 4270SOL    HW224870   0.484   5.797   8.507
 4271SOL     OW24871   1.018   6.348   8.325
 4271SOL    HW124872   0.929   6.331   8.281
 4271SOL    HW224873   1.087   6.288   8.285
 4272SOL     OW24874   0.207   6.990   7.802
 4272SOL    HW124875   0.256   6.906   7.829
 4272SOL    HW224876   0.236   7.016   7.710
 4273SOL     OW24877   1.464   6.872   8.612
 4273SOL    HW124878   1.423   6.908   8.528
 4273SOL    HW224879   1.399   6.883   8.688
 4274SOL     OW24880   0.165   7.123   8.036
 4274SOL    HW124881   0.123   7.212   8.020
 4274SOL    HW224882   0.173   7.074   7.949
 4275SOL     OW24883   1.731   6.908   8.660
 4275SOL    HW124884   1.755   6.945   8.750
 4275SOL    HW224885   1.632   6.896   8.654
 4276SOL     OW24886   0.452   6.498   7.434
 4276SOL    HW124887   0.447   6.554   7.351
 4276SOL    HW224888   0.445   6.558   7.514
 4277SOL     OW24889   0.959   6.675   8.667
 4277SOL    HW124890   0.998   6.586   8.643
 4277SOL    HW224891   0.898   6.705   8.594
 4278SOL     OW24892   0.120   6.473   7.625
 4278SOL    HW124893   0.193   6.456   7.691
 4278SOL    HW224894   0.056   6.396   7.627
 4279SOL     OW24895   1.573   6.380   7.790
 4279SOL    HW124896   1.647   6.317   7.765
 4279SOL    HW224897   1.595   6.472   7.756
 4280SOL     OW24898   0.892   7.366   8.386
 4280SOL    HW124899   0.926   7.275   8.363
 4280SOL    HW224900   0.809   7.358   8.442
 4281SOL     OW24901   0.728   6.429   7.494
 4281SOL    HW124902   0.772   6.341   7.513
 4281SOL    HW224903   0.630   6.416   7.480
 4282SOL     OW24904   1.379   6.000   7.834
 4282SOL    HW124905   1.350   6.094   7.814
 4282SOL    HW224906   1.479   5.996   7.835
 4283SOL     OW24907   0.364   6.195   8.853
 4283SOL    HW124908   0.383   6.126   8.783
 4283SOL    HW224909   0.325   6.151   8.934
 4284SOL     OW24910   0.242   5.756   8.799
 4284SOL    HW124911   0.302   5.778   8.722
 4284SOL    HW224912   0.203   5.665   8.785
 4285SOL     OW24913   1.002   6.412   8.591
 4285SOL    HW124914   1.013   6.393   8.493
 4285SOL    HW224915   0.922   6.364   8.626
 4286SOL     OW24916   1.651   5.981   7.865
 4286SOL    HW124917   1.739   5.935   7.851
 4286SOL    HW224918   1.637   5.998   7.963
 4287SOL     OW24919   0.927   7.101   8.331
 4287SOL    HW124920   0.981   7.067   8.254
 4287SOL    HW224921   0.830   7.094   8.308
 4288SOL     OW24922   0.823   5.903   7.609
 4288SOL    HW124923   0.751   5.900   7.678
 4288SOL    HW224924   0.912   5.893   7.653
 4289SOL     OW24925   0.963   6.841   7.571
 4289SOL    HW124926   1.009   6.800   7.649
 4289SOL    HW224927   1.031   6.866   7.501
 4290SOL     OW24928   1.626   7.156   8.024
 4290SOL    HW124929   1.617   7.248   8.063
 4290SOL    HW224930   1.686   7.160   7.944
 4291SOL     OW24931   1.191   6.431   7.962
 4291SOL    HW124932   1.228   6.453   8.052
 4291SOL    HW224933   1.098   6.467   7.955
 4292SOL     OW24934   0.867   7.159   9.017
 4292SOL    HW124935   0.821   7.102   8.949
 4292SOL    HW224936   0.866   7.112   9.105
 4293SOL     OW24937   1.316   6.505   8.198
 4293SOL    HW124938   1.383   6.468   8.262
 4293SOL    HW224939   1.261   6.574   8.245
 4294SOL     OW24940   0.342   6.624   8.284
 4294SOL    HW124941   0.262   6.676   8.255
 4294SOL    HW224942   0.335   6.602   8.381
 4295SOL     OW24943   0.936   6.542   7.921
 4295SOL    HW124944   0.879   6.475   7.873
 4295SOL    HW224945   0.881   6.588   7.991
 4296SOL     OW24946   1.266   6.909   8.801
 4296SOL    HW124947   1.308   6.991   8.839
 4296SOL    HW224948   1.167   6.913   8.814
 4297SOL     OW24949   0.089   5.766   7.833
 4297SOL    HW124950   0.118   5.812   7.749
 4297SOL    HW224951   0.127   5.816   7.912
 4298SOL     OW24952   1.666   7.301   7.592
 4298SOL    HW124953   1.751   7.352   7.580
 4298SOL    HW224954   1.639   7.259   7.505
 4299SOL     OW24955   0.810   6.294   8.765
 4299SOL    HW124956   0.805   6.385   8.807
 4299SOL    HW224957   0.859   6.233   8.827
 4300SOL     OW24958   0.175   7.329   8.753
 4300SOL    HW124959   0.097   7.335   8.691
 4300SOL    HW224960   0.144   7.304   8.845
 4301SOL     OW24961   0.766   6.361   7.797
 4301SOL    HW124962   0.671   6.389   7.785
 4301SOL    HW224963   0.797   6.314   7.715
 4302SOL     OW24964   0.360   6.168   8.259
 4302SOL    HW124965   0.432   6.119   8.210
 4302SOL    HW224966   0.375   6.161   8.357
 4303SOL     OW24967   0.323   7.323   7.625
 4303SOL    HW124968   0.407   7.363   7.589
 4303SOL    HW224969   0.325   7.326   7.725
 4304SOL     OW24970   1.319   7.296   8.538
 4304SOL    HW124971   1.347   7.315   8.444
 4304SOL    HW224972   1.242   7.232   8.537
 4305SOL     OW24973   0.103   6.755   8.245
 4305SOL    HW124974   0.053   6.750   8.159
 4305SOL    HW224975   0.051   6.709   8.317
 4306SOL     OW24976   0.754   5.602   7.808
 4306SOL    HW124977   0.770   5.592   7.710
 4306SOL    HW224978   0.718   5.694   7.826
 4307SOL     OW24979   0.079   6.702   7.909
 4307SOL    HW124980   0.177   6.721   7.916
 4307SOL    HW224981   0.047   6.724   7.817
 4308SOL     OW24982   1.611   5.839   8.946
 4308SOL    HW124983   1.567   5.928   8.955
 4308SOL    HW224984   1.661   5.817   9.030
 4309SOL     OW24985   1.296   5.764   8.303
 4309SOL    HW124986   1.309   5.830   8.229
 4309SOL    HW224987   1.333   5.801   8.388
 4310SOL     OW24988   1.378   5.642   7.565
 4310SOL    HW124989   1.375   5.542   7.557
 4310SOL    HW224990   1.350   5.669   7.657
 4311SOL     OW24991   1.606   5.555   8.951
 4311SOL    HW124992   1.588   5.513   8.862
 4311SOL    HW224993   1.597   5.655   8.942
 4312SOL     OW24994   0.762   5.844   8.078
 4312SOL    HW124995   0.752   5.766   8.139
 4312SOL    HW224996   0.856   5.879   8.085
 4313SOL     OW24997   1.342   6.152   8.495
 4313SOL    HW124998   1.409   6.172   8.424
 4313SOL    HW224999   1.354   6.215   8.571
 4314SOL     OW25000   1.588   5.601   7.834
 4314SOL    HW125001   1.609   5.556   7.747
 4314SOL    HW225002   1.497   5.642   7.829
 4315SOL     OW25003   0.603   6.930   9.147
 4315SOL    HW125004   0.561   6.998   9.087
 4315SOL    HW225005   0.687   6.967   9.186
 4316SOL     OW25006   0.465   6.696   9.063
 4316SOL    HW125007   0.508   6.669   8.977
 4316SOL    HW225008   0.503   6.784   9.093
 4317SOL     OW25009   0.164   6.952   8.439
 4317SOL    HW125010   0.150   6.890   8.362
 4317SOL    HW225011   0.079   6.961   8.490
 4318SOL     OW25012   1.145   6.117   8.221
 4318SOL    HW125013   1.228   6.071   8.190
 4318SOL    HW225014   1.120   6.082   8.312
 4319SOL     OW25015   1.763   6.130   9.104
 4319SOL    HW125016   1.782   6.190   9.027
 4319SOL    HW225017   1.847   6.113   9.156
 4320SOL     OW25018   1.400   5.888   8.526
 4320SOL    HW125019   1.377   5.985   8.514
 4320SOL    HW225020   1.385   5.862   8.621
 4321SOL     OW25021   1.533   6.005   9.195
 4321SOL    HW125022   1.615   6.053   9.164
 4321SOL    HW225023   1.557   5.938   9.265
 4322SOL     OW25024   1.322   6.274   7.788
 4322SOL    HW125025   1.270   6.325   7.856
 4322SOL    HW225026   1.417   6.306   7.786
 4323SOL     OW25027   1.545   6.502   8.040
 4323SOL    HW125028   1.542   6.454   7.953
 4323SOL    HW225029   1.454   6.503   8.081
 4324SOL     OW25030   1.600   5.813   7.549
 4324SOL    HW125031   1.635   5.831   7.641
 4324SOL    HW225032   1.528   5.744   7.554
 4325SOL     OW25033   0.747   7.022   8.806
 4325SOL    HW125034   0.693   7.104   8.791
 4325SOL    HW225035   0.707   6.945   8.755
 4326SOL     OW25036   0.202   5.825   9.058
 4326SOL    HW125037   0.222   5.807   8.962
 4326SOL    HW225038   0.111   5.791   9.080
 4327SOL     OW25039   0.089   7.304   9.031
 4327SOL    HW125040   0.182   7.310   9.066
 4327SOL    HW225041   0.038   7.234   9.082
 4328SOL     OW25042   0.233   5.889   8.031
 4328SOL    HW125043   0.182   5.960   8.079
 4328SOL    HW225044   0.292   5.841   8.096
 4329SOL     OW25045   1.397   7.125   8.893
 4329SOL    HW125046   1.340   7.191   8.941
 4329SOL    HW225047   1.454   7.172   8.825
 4330SOL     OW25048   0.256   6.132   7.642
 4330SOL    HW125049   0.311   6.165   7.565
 4330SOL    HW225050   0.282   6.181   7.725
 4331SOL     OW25051   1.798   5.868   8.742
 4331SOL    HW125052   1.729   5.856   8.813
 4331SOL    HW225053   1.758   5.846   8.653
 4332SOL     OW25054   0.484   7.345   8.123
 4332SOL    HW125055   0.443   7.369   8.035
 4332SOL    HW225056   0.497   7.246   8.129
 4333SOL     OW25057   0.361   6.848   8.610
 4333SOL    HW125058   0.350   6.881   8.703
 4333SOL    HW225059   0.297   6.896   8.550
 4334SOL     OW25060   1.175   7.119   9.220
 4334SOL    HW125061   1.150   7.028   9.186
 4334SOL    HW225062   1.194   7.179   9.142
 4335SOL     OW25063   0.758   6.836   7.857
 4335SOL    HW125064   0.758   6.771   7.781
 4335SOL    HW225065   0.762   6.786   7.944
 4336SOL     OW25066   0.301   6.399   8.127
 4336SOL    HW125067   0.328   6.479   8.180
 4336SOL    HW225068   0.333   6.316   8.173
 4337SOL     OW25069   0.237   5.857   7.606
 4337SOL    HW125070   0.292   5.826   7.528
 4337SOL    HW225071   0.237   5.957   7.609
 4338SOL     OW25072   0.107   6.091   8.172
 4338SOL    HW125073   0.050   6.073   8.252
 4338SOL    HW225074   0.197   6.123   8.202
 4339SOL     OW25075   0.481   6.683   7.648
 4339SOL    HW125076   0.581   6.684   7.642
 4339SOL    HW225077   0.445   6.769   7.613
 4340SOL     OW25078   0.854   6.196   7.588
 4340SOL    HW125079   0.952   6.191   7.609
 4340SOL    HW225080   0.819   6.104   7.570
 4341SOL     OW25081   1.336   5.729   7.822
 4341SOL    HW125082   1.260   5.710   7.884
 4341SOL    HW225083   1.353   5.827   7.819
 4342SOL     OW25084   1.459   6.074   8.896
 4342SOL    HW125085   1.402   6.114   8.968
 4342SOL    HW225086   1.406   6.008   8.843
 4343SOL     OW25087   0.070   5.643   7.512
 4343SOL    HW125088   0.074   5.568   7.578
 4343SOL    HW225089   0.119   5.722   7.548
 4344SOL     OW25090   0.278   6.593   8.550
 4344SOL    HW125091   0.275   6.526   8.624
 4344SOL    HW225092   0.315   6.679   8.584
 4345SOL     OW25093   1.604   6.642   7.721
 4345SOL    HW125094   1.605   6.710   7.795
 4345SOL    HW225095   1.513   6.638   7.681
 4346SOL     OW25096   0.649   6.170   8.579
 4346SOL    HW125097   0.693   6.220   8.654
 4346SOL    HW225098   0.562   6.132   8.611
 4347SOL     OW25099   0.837   6.545   8.878
 4347SOL    HW125100   0.892   6.598   8.814
 4347SOL    HW225101   0.834   6.591   8.966
 4348SOL     OW25102   1.174   6.599   9.084
 4348SOL    HW125103   1.094   6.540   9.096
 4348SOL    HW225104   1.256   6.549   9.110
 4349SOL     OW25105   1.108   5.760   7.987
 4349SOL    HW125106   1.075   5.852   8.005
 4349SOL    HW225107   1.087   5.701   8.065
 4350SOL     OW25108   1.225   7.296   9.017
 4350SOL    HW125109   1.149   7.316   8.954
 4350SOL    HW225110   1.257   7.380   9.059
 4351SOL     OW25111   0.706   5.644   8.248
 4351SOL    HW125112   0.648   5.584   8.193
 4351SOL    HW225113   0.775   5.589   8.296
 4352SOL     OW25114   0.390   7.323   8.587
 4352SOL    HW125115   0.349   7.282   8.505
 4352SOL    HW225116   0.321   7.327   8.659
 4353SOL     OW25117   0.985   6.778   8.249
 4353SOL    HW125118   1.018   6.860   8.203
 4353SOL    HW225119   1.060   6.732   8.295
 4354SOL     OW25120   0.675   6.507   8.287
 4354SOL    HW125121   0.715   6.418   8.263
 4354SOL    HW225122   0.583   6.493   8.324
 4355SOL     OW25123   0.010   6.639   8.482
 4355SOL    HW125124   0.105   6.622   8.508
 4355SOL    HW225125   9.957   6.554   8.490
 4356SOL     OW25126   0.338   5.541   7.871
 4356SOL    HW125127   0.362   5.637   7.852
 4356SOL    HW225128   0.240   5.533   7.885
 4357SOL     OW25129   0.694   6.178   9.084
 4357SOL    HW125130   0.646   6.251   9.035
 4357SOL    HW225131   0.789   6.174   9.053
 4358SOL     OW25132   0.037   6.736   7.632
 4358SOL    HW125133   0.073   6.644   7.623
 4358SOL    HW225134   0.079   6.795   7.562
 4359SOL     OW25135   1.750   5.792   8.233
 4359SOL    HW125136   1.728   5.801   8.330
 4359SOL    HW225137   1.848   5.776   8.222
 4360SOL     OW25138   0.792   6.717   8.443
 4360SOL    HW125139   0.752   6.636   8.401
 4360SOL    HW225140   0.860   6.757   8.382
 4361SOL     OW25141   1.119   6.147   7.651
 4361SOL    HW125142   1.189   6.201   7.698
 4361SOL    HW225143   1.162   6.079   7.593
 4362SOL     OW25144   1.554   6.974   9.061
 4362SOL    HW125145   1.512   6.894   9.105
 4362SOL    HW225146   1.487   7.018   9.001
 4363SOL     OW25147   0.230   6.403   8.752
 4363SOL    HW125148   0.281   6.325   8.788
 4363SOL    HW225149   0.228   6.477   8.820
 4364SOL     OW25150   0.792   7.012   7.424
 4364SOL    HW125151   0.745   7.078   7.482
 4364SOL    HW225152   0.847   6.950   7.481
 4365SOL     OW25153   0.639   7.286   8.458
 4365SOL    HW125154   0.634   7.221   8.383
 4365SOL    HW225155   0.550   7.296   8.501
 4366SOL     OW25156   0.772   6.686   8.103
 4366SOL    HW125157   0.850   6.729   8.150
 4366SOL    HW225158   0.734   6.615   8.161
 4367SOL     OW25159   0.964   7.033   7.870
 4367SOL    HW125160   1.010   7.056   7.784
 4367SOL    HW225161   0.896   6.962   7.853
 4368SOL     OW25162   0.091   6.363   8.321
 4368SOL    HW125163   0.146   6.384   8.239
 4368SOL    HW225164   0.007   6.316   8.293
 4369SOL     OW25165   0.092   6.508   9.166
 4369SOL    HW125166   0.062   6.415   9.144
 4369SOL    HW225167   0.119   6.513   9.262
 4370SOL     OW25168   1.007   7.333   8.847
 4370SOL    HW125169   0.964   7.266   8.909
 4370SOL    HW225170   0.935   7.389   8.805
 4371SOL     OW25171   1.214   6.691   8.382
 4371SOL    HW125172   1.242   6.786   8.392
 4371SOL    HW225173   1.244   6.639   8.461
 4372SOL     OW25174   0.596   5.924   9.117
 4372SOL    HW125175   0.648   5.869   9.052
 4372SOL    HW225176   0.627   6.018   9.114
 4373SOL     OW25177   0.502   6.432   7.768
 4373SOL    HW125178   0.491   6.522   7.727
 4373SOL    HW225179   0.415   6.401   7.805
 4374SOL     OW25180   1.524   6.473   8.381
 4374SOL    HW125181   1.579   6.545   8.339
 4374SOL    HW225182   1.484   6.507   8.466
 4375SOL     OW25183   1.362   5.831   8.791
 4375SOL    HW125184   1.432   5.803   8.856
 4375SOL    HW225185   1.299   5.755   8.775
 4376SOL     OW25186   0.065   5.504   7.887
 4376SOL    HW125187   0.019   5.460   7.810
 4376SOL    HW225188   0.056   5.603   7.879
 4377SOL     OW25189   1.297   5.680   9.114
 4377SOL    HW125190   1.330   5.672   9.208
 4377SOL    HW225191   1.235   5.759   9.107
 4378SOL     OW25192   0.480   7.129   9.002
 4378SOL    HW125193   0.426   7.193   9.058
 4378SOL    HW225194   0.523   7.180   8.927
 4379SOL     OW25195   1.787   6.995   8.916
 4379SOL    HW125196   1.830   7.080   8.944
 4379SOL    HW225197   1.703   6.982   8.969
 4380SOL     OW25198   1.082   6.035   8.477
 4380SOL    HW125199   1.161   6.092   8.500
 4380SOL    HW225200   1.090   5.947   8.524
 4381SOL     OW25201   0.435   7.048   8.081
 4381SOL    HW125202   0.445   6.949   8.090
 4381SOL    HW225203   0.339   7.071   8.070
 4382SOL     OW25204   1.103   7.120   8.540
 4382SOL    HW125205   1.057   7.125   8.629
 4382SOL    HW225206   1.034   7.112   8.468
 4383SOL     OW25207   0.335   7.309   9.157
 4383SOL    HW125208   0.372   7.402   9.159
 4383SOL    HW225209   0.320   7.277   9.250
 4384SOL     OW25210   0.094   6.918   8.992
 4384SOL    HW125211   0.032   6.851   9.033
 4384SOL    HW225212   0.045   6.973   8.925
 4385SOL     OW25213   0.258   7.207   8.376
 4385SOL    HW125214   0.228   7.115   8.400
 4385SOL    HW225215   0.260   7.216   8.276
 4386SOL     OW25216   1.049   5.661   8.235
 4386SOL    HW125217   1.135   5.694   8.274
 4386SOL    HW225218   0.996   5.615   8.305
 4387SOL     OW25219   1.095   6.716   7.772
 4387SOL    HW125220   1.166   6.756   7.829
 4387SOL    HW225221   1.039   6.654   7.828
 4388SOL     OW25222   1.615   6.016   8.136
 4388SOL    HW125223   1.609   6.088   8.205
 4388SOL    HW225224   1.669   5.940   8.174
 4389SOL     OW25225   0.751   6.673   7.629
 4389SOL    HW125226   0.825   6.731   7.594
 4389SOL    HW225227   0.758   6.582   7.588
 4390SOL     OW25228   0.805   5.632   7.528
 4390SOL    HW125229   0.890   5.580   7.529
 4390SOL    HW225230   0.825   5.730   7.540
 4391SOL     OW25231   0.559   6.046   8.126
 4391SOL    HW125232   0.593   5.953   8.139
 4391SOL    HW225233   0.620   6.096   8.065
 4392SOL     OW25234   0.581   6.618   8.830
 4392SOL    HW125235   0.675   6.586   8.847
 4392SOL    HW225236   0.584   6.694   8.765
 4393SOL     OW25237   1.724   6.633   8.706
 4393SOL    HW125238   1.737   6.731   8.688
 4393SOL    HW225239   1.779   6.580   8.642
 4394SOL     OW25240   0.166   6.894   7.435
 4394SOL    HW125241   0.172   6.889   7.335
 4394SOL    HW225242   0.258   6.908   7.473
 4395SOL     OW25243   0.648   7.175   7.581
 4395SOL    HW125244   0.610   7.267   7.565
 4395SOL    HW225245   0.617   7.141   7.670
 4396SOL     OW25246   1.310   6.648   8.851
 4396SOL    HW125247   1.254   6.618   8.928
 4396SOL    HW225248   1.294   6.745   8.834
 4397SOL     OW25249   0.594   7.255   8.781
 4397SOL    HW125250   0.659   7.330   8.774
 4397SOL    HW225251   0.521   7.267   8.714
 4398SOL     OW25252   0.264   6.093   9.082
 4398SOL    HW125253   0.249   5.994   9.086
 4398SOL    HW225254   0.332   6.119   9.151
 4399SOL     OW25255   1.663   7.050   8.428
 4399SOL    HW125256   1.693   7.142   8.454
 4399SOL    HW225257   1.682   6.986   8.502
 4400SOL     OW25258   9.973   6.452   7.930
 4400SOL    HW125259   0.018   6.541   7.937
 4400SOL    HW225260   9.879   6.464   7.900
 4401SOL     OW25261   0.552   6.366   8.951
 4401SOL    HW125262   0.481   6.307   8.913
 4401SOL    HW225263   0.549   6.455   8.907
 4402SOL     OW25264   1.638   6.683   8.234
 4402SOL    HW125265   1.612   6.779   8.224
 4402SOL    HW225266   1.606   6.631   8.155
 4403SOL     OW25267   0.803   6.054   8.393
 4403SOL    HW125268   0.899   6.048   8.422
 4403SOL    HW225269   0.750   6.099   8.465
 4404SOL     OW25270   0.633   6.823   8.648
 4404SOL    HW125271   0.538   6.839   8.621
 4404SOL    HW225272   0.685   6.793   8.568
 4405SOL     OW25273   0.213   6.224   8.525
 4405SOL    HW125274   0.219   6.285   8.604
 4405SOL    HW225275   0.173   6.274   8.448
 4406SOL     OW25276   0.336   6.936   8.863
 4406SOL    HW125277   0.389   7.006   8.912
 4406SOL    HW225278   0.248   6.924   8.909
 4407SOL     OW25279   1.646   7.211   9.166
 4407SOL    HW125280   1.614   7.119   9.143
 4407SOL    HW225281   1.619   7.275   9.094
 4408SOL     OW25282   1.347   6.782   7.874
 4408SOL    HW125283   1.437   6.803   7.912
 4408SOL    HW225284   1.355   6.702   7.813
 4409SOL     OW25285   0.663   5.886   7.833
 4409SOL    HW125286   0.566   5.863   7.828
 4409SOL    HW225287   0.696   5.868   7.926
 4410SOL     OW25288   1.619   5.576   8.110
 4410SOL    HW125289   1.605   5.590   8.012
 4410SOL    HW225290   1.666   5.655   8.149
 4411SOL     OW25291   1.145   6.276   8.784
 4411SOL    HW125292   1.244   6.289   8.774
 4411SOL    HW225293   1.097   6.330   8.715
 4412SOL     OW25294   0.780   6.262   8.210
 4412SOL    HW125295   0.779   6.185   8.273
 4412SOL    HW225296   0.774   6.229   8.116
 4413SOL     OW25297   1.284   6.953   8.416
 4413SOL    HW125298   1.220   7.006   8.471
 4413SOL    HW225299   1.303   7.002   8.331
 4414SOL     OW25300   1.348   5.964   8.114
 4414SOL    HW125301   1.330   5.965   8.016
 4414SOL    HW225302   1.445   5.983   8.131
 4415SOL     OW25303   1.158   7.010   0.008
 4415SOL    HW125304   1.223   6.934   0.002
 4415SOL    HW225305   1.101   7.011   9.926
 4416SOL     OW25306   1.663   6.776   9.813
 4416SOL    HW125307   1.701   6.818   9.895
 4416SOL    HW225308   1.736   6.741   9.755
 4417SOL     OW25309   0.407   5.761   9.222
 4417SOL    HW125310   0.326   5.778   9.166
 4417SOL    HW225311   0.481   5.821   9.192
 4418SOL     OW25312   0.586   7.011   9.591
 4418SOL    HW125313   0.539   7.056   9.667
 4418SOL    HW225314   0.661   6.955   9.626
 4419SOL     OW25315   0.572   5.593   9.373
 4419SOL    HW125316   0.667   5.624   9.370
 4419SOL    HW225317   0.514   5.659   9.324
 4420SOL     OW25318   0.517   6.868   9.946
 4420SOL    HW125319   0.469   6.888   0.032
 4420SOL    HW225320   0.616   6.875   9.962
 4421SOL     OW25321   0.752   6.167   9.740
 4421SOL    HW125322   0.764   6.260   9.706
 4421SOL    HW225323   0.764   6.102   9.666
 4422SOL     OW25324   0.443   6.920   9.371
 4422SOL    HW125325   0.499   6.929   9.289
 4422SOL    HW225326   0.488   6.966   9.447
 4423SOL     OW25327   0.301   6.301   9.702
 4423SOL    HW125328   0.323   6.255   9.788
 4423SOL    HW225329   0.206   6.334   9.706
 4424SOL     OW25330   0.966   7.283   9.853
 4424SOL    HW125331   0.978   7.185   9.837
 4424SOL    HW225332   0.901   7.319   9.786
 4425SOL     OW25333   1.770   7.132   9.626
 4425SOL    HW125334   1.863   7.104   9.604
 4425SOL    HW225335   1.730   7.180   9.548
 4426SOL     OW25336   1.066   5.898   9.618
 4426SOL    HW125337   1.133   5.973   9.625
 4426SOL    HW225338   1.077   5.836   9.695
 4427SOL     OW25339   0.460   6.222   9.248
 4427SOL    HW125340   0.453   6.322   9.248
 4427SOL    HW225341   0.546   6.194   9.205
 4428SOL     OW25342   1.805   6.913   0.033
 4428SOL    HW125343   1.761   6.922   0.122
 4428SOL    HW225344   1.791   6.997   9.980
 4429SOL     OW25345   0.385   6.788   9.715
 4429SOL    HW125346   0.440   6.814   9.795
 4429SOL    HW225347   0.445   6.750   9.645
 4430SOL     OW25348   1.106   5.789   9.372
 4430SOL    HW125349   1.178   5.719   9.380
 4430SOL    HW225350   1.093   5.832   9.461
 4431SOL     OW25351   0.397   5.775   9.741
 4431SOL    HW125352   0.323   5.842   9.732
 4431SOL    HW225353   0.364   5.685   9.713
 4432SOL     OW25354   1.943   7.341   0.222
 4432SOL    HW125355   1.923   7.380   0.312
 4432SOL    HW225356   2.027   7.288   0.226
 4433SOL     OW25357   0.918   6.021   9.898
 4433SOL    HW125358   0.989   6.071   9.947
 4433SOL    HW225359   0.864   6.085   9.843
 4434SOL     OW25360   1.264   6.513   9.401
 4434SOL    HW125361   1.280   6.464   9.487
 4434SOL    HW225362   1.219   6.451   9.336
 4435SOL     OW25363   1.745   6.201   9.555
 4435SOL    HW125364   1.687   6.120   9.555
 4435SOL    HW225365   1.814   6.192   9.627
 4436SOL     OW25366   1.016   7.300   9.373
 4436SOL    HW125367   1.060   7.240   9.307
 4436SOL    HW225368   1.025   7.262   9.465
 4437SOL     OW25369   0.025   6.142   9.771
 4437SOL    HW125370   0.059   6.133   9.864
 4437SOL    HW225371   0.021   6.239   9.746
 4438SOL     OW25372   0.230   7.006   9.617
 4438SOL    HW125373   0.290   6.929   9.637
 4438SOL    HW225374   0.252   7.043   9.526
 4439SOL     OW25375   0.190   7.165   9.831
 4439SOL    HW125376   0.141   7.123   9.907
 4439SOL    HW225377   0.184   7.105   9.751
 4440SOL     OW25378   0.481   6.499   9.261
 4440SOL    HW125379   0.466   6.557   9.181
 4440SOL    HW225380   0.466   6.553   9.344
 4441SOL     OW25381   0.133   6.498   9.437
 4441SOL    HW125382   0.153   6.523   9.532
 4441SOL    HW225383   0.098   6.404   9.434
 4442SOL     OW25384   1.602   6.422   9.635
 4442SOL    HW125385   1.653   6.342   9.605
 4442SOL    HW225386   1.615   6.497   9.569
 4443SOL     OW25387   0.750   6.440   9.271
 4443SOL    HW125388   0.772   6.352   9.312
 4443SOL    HW225389   0.651   6.450   9.265
 4444SOL     OW25390   1.376   5.932   9.583
 4444SOL    HW125391   1.327   6.013   9.553
 4444SOL    HW225392   1.471   5.956   9.605
 4445SOL     OW25393   1.643   5.943   9.645
 4445SOL    HW125394   1.742   5.930   9.635
 4445SOL    HW225395   1.617   5.932   9.741
 4446SOL     OW25396   0.813   5.976   9.552
 4446SOL    HW125397   0.750   5.905   9.584
 4446SOL    HW225398   0.907   5.949   9.574
 4447SOL     OW25399   0.991   6.836   9.377
 4447SOL    HW125400   1.049   6.815   9.456
 4447SOL    HW225401   1.047   6.836   9.294
 4448SOL     OW25402   1.762   7.144   9.898
 4448SOL    HW125403   1.711   7.225   9.925
 4448SOL    HW225404   1.754   7.132   9.799
 4449SOL     OW25405   1.170   6.357   9.861
 4449SOL    HW125406   1.239   6.417   9.899
 4449SOL    HW225407   1.095   6.412   9.823
 4450SOL     OW25408   1.359   6.532   9.941
 4450SOL    HW125409   1.318   6.548   0.030
 4450SOL    HW225410   1.364   6.618   9.891
 4451SOL     OW25411   0.979   6.532   9.752
 4451SOL    HW125412   0.917   6.483   9.692
 4451SOL    HW225413   0.927   6.591   9.814
 4452SOL     OW25414   0.157   5.910   9.688
 4452SOL    HW125415   0.175   5.904   9.590
 4452SOL    HW225416   0.108   5.995   9.707
 4453SOL     OW25417   1.660   7.302   9.424
 4453SOL    HW125418   1.746   7.353   9.418
 4453SOL    HW225419   1.640   7.258   9.336
 4454SOL     OW25420   0.796   6.404   9.593
 4454SOL    HW125421   0.696   6.415   9.597
 4454SOL    HW225422   0.820   6.340   9.520
 4455SOL     OW25423   0.323   7.269   9.434
 4455SOL    HW125424   0.406   7.325   9.436
 4455SOL    HW225425   0.258   7.303   9.502
 4456SOL     OW25426   0.811   5.538   9.661
 4456SOL    HW125427   0.780   5.480   9.585
 4456SOL    HW225428   0.760   5.623   9.662
 4457SOL     OW25429   0.149   6.659   9.675
 4457SOL    HW125430   0.234   6.707   9.697
 4457SOL    HW225431   0.093   6.716   9.615
 4458SOL     OW25432   1.361   5.624   9.385
 4458SOL    HW125433   1.368   5.526   9.371
 4458SOL    HW225434   1.346   5.643   9.482
 4459SOL     OW25435   0.752   5.821   9.953
 4459SOL    HW125436   0.785   5.763   0.027
 4459SOL    HW225437   0.820   5.891   9.932
 4460SOL     OW25438   1.594   5.594   9.660
 4460SOL    HW125439   1.619   5.550   9.573
 4460SOL    HW225440   1.499   5.622   9.657
 4461SOL     OW25441   1.328   6.373   9.629
 4461SOL    HW125442   1.280   6.371   9.716
 4461SOL    HW225443   1.424   6.396   9.644
 4462SOL     OW25444   1.617   6.440   9.909
 4462SOL    HW125445   1.624   6.435   9.809
 4462SOL    HW225446   1.526   6.470   9.935
 4463SOL     OW25447   1.590   5.808   9.383
 4463SOL    HW125448   1.605   5.843   9.475
 4463SOL    HW225449   1.512   5.746   9.382
 4464SOL     OW25450   0.304   6.142   9.462
 4464SOL    HW125451   0.369   6.174   9.393
 4464SOL    HW225452   0.318   6.194   9.547
 4465SOL     OW25453   0.372   7.319   9.977
 4465SOL    HW125454   0.288   7.285   9.937
 4465SOL    HW225455   0.451   7.271   9.938
 4466SOL     OW25456   0.781   6.845   9.692
 4466SOL    HW125457   0.792   6.790   9.609
 4466SOL    HW225458   0.790   6.786   9.773
 4467SOL     OW25459   0.244   5.879   9.425
 4467SOL    HW125460   0.311   5.833   9.366
 4467SOL    HW225461   0.268   5.975   9.434
 4468SOL     OW25462   0.125   6.109   0.022
 4468SOL    HW125463   0.089   6.119   0.115
 4468SOL    HW225464   0.217   6.147   0.017
 4469SOL     OW25465   0.510   6.680   9.484
 4469SOL    HW125466   0.609   6.683   9.478
 4469SOL    HW225467   0.472   6.761   9.438
 4470SOL     OW25468   1.124   6.240   9.282
 4470SOL    HW125469   1.077   6.308   9.226
 4470SOL    HW225470   1.188   6.189   9.225
 4471SOL     OW25471   0.861   6.215   9.404
 4471SOL    HW125472   0.954   6.212   9.368
 4471SOL    HW225473   0.836   6.125   9.440
 4472SOL     OW25474   1.331   5.678   9.649
 4472SOL    HW125475   1.257   5.670   9.715
 4472SOL    HW225476   1.347   5.775   9.629
 4473SOL     OW25477   0.059   5.672   9.393
 4473SOL    HW125478   0.105   5.592   9.431
 4473SOL    HW225479   0.117   5.753   9.406
 4474SOL     OW25480   1.658   6.586   9.423
 4474SOL    HW125481   1.758   6.597   9.426
 4474SOL    HW225482   1.629   6.574   9.329
 4475SOL     OW25483   1.117   5.710   9.821
 4475SOL    HW125484   1.128   5.759   9.907
 4475SOL    HW225485   1.069   5.624   9.838
 4476SOL     OW25486   0.277   5.527   9.699
 4476SOL    HW125487   0.313   5.492   9.786
 4476SOL    HW225488   0.187   5.567   9.715
 4477SOL     OW25489   0.026   6.751   9.432
 4477SOL    HW125490   0.064   6.660   9.417
 4477SOL    HW225491   0.075   6.818   9.377
 4478SOL     OW25492   1.727   5.773   0.099
 4478SOL    HW125493   1.666   5.705   0.140
 4478SOL    HW225494   1.821   5.738   0.100
 4479SOL     OW25495   1.226   6.146   9.520
 4479SOL    HW125496   1.263   6.227   9.564
 4479SOL    HW225497   1.183   6.172   9.433
 4480SOL     OW25498   0.828   7.035   9.263
 4480SOL    HW125499   0.798   7.104   9.329
 4480SOL    HW225500   0.889   6.970   9.308
 4481SOL     OW25501   0.814   6.684   9.914
 4481SOL    HW125502   0.804   6.768   9.968
 4481SOL    HW225503   0.794   6.605   9.971
 4482SOL     OW25504   1.000   7.016   9.780
 4482SOL    HW125505   1.054   7.034   9.698
 4482SOL    HW225506   0.921   6.959   9.756
 4483SOL     OW25507   0.527   6.432   9.608
 4483SOL    HW125508   0.502   6.520   9.567
 4483SOL    HW225509   0.445   6.385   9.640
 4484SOL     OW25510   0.052   5.664   9.756
 4484SOL    HW125511   9.970   5.669   9.814
 4484SOL    HW225512   0.083   5.757   9.736
 4485SOL     OW25513   0.465   7.104   9.814
 4485SOL    HW125514   0.487   7.025   9.870
 4485SOL    HW225515   0.366   7.118   9.815
 4486SOL     OW25516   1.114   6.741   9.617
 4486SOL    HW125517   1.202   6.758   9.661
 4486SOL    HW225518   1.069   6.663   9.660
 4487SOL     OW25519   0.783   6.685   9.467
 4487SOL    HW125520   0.856   6.738   9.424
 4487SOL    HW225521   0.808   6.588   9.468
 4488SOL     OW25522   0.843   5.646   9.351
 4488SOL    HW125523   0.900   5.566   9.366
 4488SOL    HW225524   0.894   5.729   9.376
 4489SOL     OW25525   0.583   6.056   9.930
 4489SOL    HW125526   0.623   5.968   9.954
 4489SOL    HW225527   0.639   6.100   9.860
 4490SOL     OW25528   0.181   6.915   9.270
 4490SOL    HW125529   0.178   6.909   9.170
 4490SOL    HW225530   0.277   6.916   9.300
 4491SOL     OW25531   0.704   7.204   9.443
 4491SOL    HW125532   0.638   7.273   9.412
 4491SOL    HW225533   0.657   7.136   9.499
 4492SOL     OW25534   0.037   6.415   9.723
 4492SOL    HW125535   0.082   6.505   9.728
 4492SOL    HW225536   9.939   6.427   9.706
 4493SOL     OW25537   1.396   6.739   9.734
 4493SOL    HW125538   1.488   6.757   9.769
 4493SOL    HW225539   1.400   6.733   9.634
 4494SOL     OW25540   0.669   5.781   9.694
 4494SOL    HW125541   0.569   5.782   9.696
 4494SOL    HW225542   0.705   5.790   9.787
 4495SOL     OW25543   1.659   5.528   9.921
 4495SOL    HW125544   1.613   5.545   9.834
 4495SOL    HW225545   1.744   5.581   9.924
 4496SOL     OW25546   1.091   8.851   0.772
 4496SOL    HW125547   1.186   8.879   0.773
 4496SOL    HW225548   1.052   8.867   0.681
 4497SOL     OW25549   1.631   8.664   0.571
 4497SOL    HW125550   1.654   8.743   0.628
 4497SOL    HW225551   1.715   8.627   0.530
 4498SOL     OW25552   1.599   8.025   1.400
 4498SOL    HW125553   1.512   7.985   1.427
 4498SOL    HW225554   1.656   8.038   1.481
 4499SOL     OW25555   0.424   7.575   0.051
 4499SOL    HW125556   0.393   7.485   0.020
 4499SOL    HW225557   0.478   7.619   9.979
 4500SOL     OW25558   1.355   8.931   0.810
 4500SOL    HW125559   1.365   9.030   0.819
 4500SOL    HW225560   1.445   8.889   0.799
 4501SOL     OW25561   0.982   8.277   1.731
 4501SOL    HW125562   0.975   8.208   1.659
 4501SOL    HW225563   0.893   8.288   1.776
 4502SOL     OW25564   0.587   8.859   0.388
 4502SOL    HW125565   0.514   8.887   0.450
 4502SOL    HW225566   0.656   8.808   0.439
 4503SOL     OW25567   0.613   7.428   0.205
 4503SOL    HW125568   0.693   7.473   0.167
 4503SOL    HW225569   0.530   7.472   0.170
 4504SOL     OW25570   1.586   8.449   1.553
 4504SOL    HW125571   1.491   8.468   1.526
 4504SOL    HW225572   1.646   8.463   1.475
 4505SOL     OW25573   1.435   8.450   1.214
 4505SOL    HW125574   1.389   8.451   1.303
 4505SOL    HW225575   1.474   8.540   1.196
 4506SOL     OW25576   1.013   8.744   1.453
 4506SOL    HW125577   0.936   8.805   1.435
 4506SOL    HW225578   1.000   8.658   1.404
 4507SOL     OW25579   0.476   8.631   0.682
 4507SOL    HW125580   0.429   8.579   0.753
 4507SOL    HW225581   0.575   8.620   0.693
 4508SOL     OW25582   0.754   8.029   0.562
 4508SOL    HW125583   0.775   8.103   0.497
 4508SOL    HW225584   0.722   7.949   0.513
 4509SOL     OW25585   1.222   7.909   1.717
 4509SOL    HW125586   1.311   7.899   1.761
 4509SOL    HW225587   1.168   7.825   1.730
 4510SOL     OW25588   0.482   8.765   0.152
 4510SOL    HW125589   0.511   8.823   0.075
 4510SOL    HW225590   0.508   8.809   0.238
 4511SOL     OW25591   0.564   7.709   1.001
 4511SOL    HW125592   0.626   7.787   1.001
 4511SOL    HW225593   0.612   7.629   0.965
 4512SOL     OW25594   0.300   8.198   0.525
 4512SOL    HW125595   0.329   8.198   0.621
 4512SOL    HW225596   0.202   8.216   0.520
 4513SOL     OW25597   0.973   9.158   0.526
 4513SOL    HW125598   0.970   9.059   0.536
 4513SOL    HW225599   0.887   9.191   0.487
 4514SOL     OW25600   1.752   8.968   0.415
 4514SOL    HW125601   1.843   8.933   0.397
 4514SOL    HW225602   1.726   9.032   0.342
 4515SOL     OW25603   1.652   7.728   1.071
 4515SOL    HW125604   1.694   7.810   1.112
 4515SOL    HW225605   1.555   7.725   1.095
 4516SOL     OW25606   1.082   7.716   0.326
 4516SOL    HW125607   1.140   7.797   0.320
 4516SOL    HW225608   1.090   7.676   0.418
 4517SOL     OW25609   0.180   8.462   1.555
 4517SOL    HW125610   0.266   8.499   1.588
 4517SOL    HW225611   0.144   8.396   1.621
 4518SOL     OW25612   0.367   8.056   0.053
 4518SOL    HW125613   0.385   8.154   0.055
 4518SOL    HW225614   0.437   8.010   9.999
 4519SOL     OW25615   1.028   8.062   1.559
 4519SOL    HW125616   1.078   7.996   1.614
 4519SOL    HW225617   1.089   8.103   1.491
 4520SOL     OW25618   1.623   8.830   0.836
 4520SOL    HW125619   1.632   8.860   0.931
 4520SOL    HW225620   1.675   8.891   0.776
 4521SOL     OW25621   0.338   8.609   0.439
 4521SOL    HW125622   0.386   8.623   0.526
 4521SOL    HW225623   0.403   8.575   0.371
 4522SOL     OW25624   1.179   7.603   0.087
 4522SOL    HW125625   1.259   7.553   0.119
 4522SOL    HW225626   1.131   7.643   0.165
 4523SOL     OW25627   0.411   7.900   1.304
 4523SOL    HW125628   0.407   7.803   1.280
 4523SOL    HW225629   0.336   7.949   1.258
 4524SOL     OW25630   1.432   8.178   1.246
 4524SOL    HW125631   1.450   8.275   1.237
 4524SOL    HW225632   1.506   8.134   1.297
 4525SOL     OW25633   0.406   7.683   0.447
 4525SOL    HW125634   0.345   7.708   0.522
 4525SOL    HW225635   0.361   7.704   0.360
 4526SOL     OW25636   1.580   9.138   1.341
 4526SOL    HW125637   1.513   9.139   1.267
 4526SOL    HW225638   1.672   9.132   1.303
 4527SOL     OW25639   1.742   7.969   1.170
 4527SOL    HW125640   1.830   8.016   1.165
 4527SOL    HW225641   1.698   7.989   1.258
 4528SOL     OW25642   1.831   9.122   1.199
 4528SOL    HW125643   1.869   9.169   1.278
 4528SOL    HW225644   1.905   9.098   1.136
 4529SOL     OW25645   0.972   7.877   0.653
 4529SOL    HW125646   1.039   7.925   0.710
 4529SOL    HW225647   0.905   7.943   0.618
 4530SOL     OW25648   1.199   8.373   0.189
 4530SOL    HW125649   1.228   8.301   0.252
 4530SOL    HW225650   1.099   8.381   0.192
 4531SOL     OW25651   1.084   7.684   1.774
 4531SOL    HW125652   1.094   7.675   1.873
 4531SOL    HW225653   0.993   7.649   1.747
 4532SOL     OW25654   1.730   8.066   0.399
 4532SOL    HW125655   1.686   7.977   0.410
 4532SOL    HW225656   1.801   8.077   0.469
 4533SOL     OW25657   0.994   9.188   0.138
 4533SOL    HW125658   0.992   9.175   0.039
 4533SOL    HW225659   0.976   9.100   0.183
 4534SOL     OW25660   0.804   7.415   1.726
 4534SOL    HW125661   0.796   7.322   1.691
 4534SOL    HW225662   0.827   7.412   1.824
 4535SOL     OW25663   1.685   8.050   0.914
 4535SOL    HW125664   1.646   8.142   0.915
 4535SOL    HW225665   1.696   8.017   1.007
 4536SOL     OW25666   1.115   8.724   1.719
 4536SOL    HW125667   1.157   8.633   1.719
 4536SOL    HW225668   1.070   8.740   1.631
 4537SOL     OW25669   0.753   8.538   1.704
 4537SOL    HW125670   0.688   8.613   1.698
 4537SOL    HW225671   0.782   8.527   1.799
 4538SOL     OW25672   1.390   7.357   0.841
 4538SOL    HW125673   1.351   7.446   0.866
 4538SOL    HW225674   1.481   7.371   0.803
 4539SOL     OW25675   9.952   7.991   0.602
 4539SOL    HW125676   9.997   7.958   0.685
 4539SOL    HW225677   9.978   8.086   0.585
 4540SOL     OW25678   0.378   7.601   0.800
 4540SOL    HW125679   0.437   7.641   0.870
 4540SOL    HW225680   0.415   7.512   0.772
 4541SOL     OW25681   0.394   7.630   1.209
 4541SOL    HW125682   0.377   7.532   1.213
 4541SOL    HW225683   0.459   7.650   1.136
 4542SOL     OW25684   1.010   8.191   0.934
 4542SOL    HW125685   0.920   8.182   0.891
 4542SOL    HW225686   1.075   8.131   0.888
 4543SOL     OW25687   0.160   8.832   0.374
 4543SOL    HW125688   0.221   8.759   0.406
 4543SOL    HW225689   0.216   8.908   0.339
 4544SOL     OW25690   1.473   8.727   1.229
 4544SOL    HW125691   1.424   8.753   1.146
 4544SOL    HW225692   1.415   8.741   1.309
 4545SOL     OW25693   0.113   8.974   0.624
 4545SOL    HW125694   0.096   9.072   0.614
 4545SOL    HW225695   0.125   8.933   0.533
 4546SOL     OW25696   1.739   8.755   1.284
 4546SOL    HW125697   1.760   8.795   1.373
 4546SOL    HW225698   1.640   8.743   1.275
 4547SOL     OW25699   0.448   8.318   0.048
 4547SOL    HW125700   0.440   8.359   9.958
 4547SOL    HW225701   0.466   8.389   0.116
 4548SOL     OW25702   0.946   8.520   1.296
 4548SOL    HW125703   0.990   8.436   1.265
 4548SOL    HW225704   0.891   8.559   1.222
 4549SOL     OW25705   0.046   8.205   0.202
 4549SOL    HW125706   0.118   8.149   0.243
 4549SOL    HW225707   9.959   8.185   0.246
 4550SOL     OW25708   1.549   8.276   0.384
 4550SOL    HW125709   1.614   8.200   0.388
 4550SOL    HW225710   1.570   8.334   0.305
 4551SOL     OW25711   0.999   9.180   1.098
 4551SOL    HW125712   0.981   9.093   1.051
 4551SOL    HW225713   0.914   9.213   1.139
 4552SOL     OW25714   0.732   8.271   0.077
 4552SOL    HW125715   0.788   8.190   0.095
 4552SOL    HW225716   0.636   8.245   0.071
 4553SOL     OW25717   1.376   7.793   0.454
 4553SOL    HW125718   1.329   7.851   0.387
 4553SOL    HW225719   1.474   7.813   0.453
 4554SOL     OW25720   0.379   8.067   1.521
 4554SOL    HW125721   0.394   7.994   1.454
 4554SOL    HW225722   0.311   8.036   1.589
 4555SOL     OW25723   0.168   7.688   1.354
 4555SOL    HW125724   0.250   7.660   1.304
 4555SOL    HW225725   0.096   7.712   1.289
 4556SOL     OW25726   1.005   8.269   1.196
 4556SOL    HW125727   1.011   8.247   1.098
 4556SOL    HW225728   0.931   8.215   1.237
 4557SOL     OW25729   1.649   7.807   0.473
 4557SOL    HW125730   1.740   7.774   0.448
 4557SOL    HW225731   1.642   7.816   0.572
 4558SOL     OW25732   0.952   8.938   0.992
 4558SOL    HW125733   1.003   8.914   0.910
 4558SOL    HW225734   0.899   8.858   1.022
 4559SOL     OW25735   0.839   7.810   0.261
 4559SOL    HW125736   0.770   7.794   0.332
 4559SOL    HW225737   0.927   7.777   0.292
 4560SOL     OW25738   1.010   8.673   0.233
 4560SOL    HW125739   1.044   8.630   0.317
 4560SOL    HW225740   1.065   8.753   0.212
 4561SOL     OW25741   1.751   9.007   0.682
 4561SOL    HW125742   1.716   9.097   0.708
 4561SOL    HW225743   1.744   8.996   0.582
 4562SOL     OW25744   1.179   8.246   0.617
 4562SOL    HW125745   1.232   8.274   0.697
 4562SOL    HW225746   1.090   8.290   0.619
 4563SOL     OW25747   0.858   8.982   1.667
 4563SOL    HW125748   0.830   8.929   1.586
 4563SOL    HW225749   0.842   8.928   1.749
 4564SOL     OW25750   1.335   8.337   0.827
 4564SOL    HW125751   1.416   8.311   0.881
 4564SOL    HW225752   1.284   8.407   0.876
 4565SOL     OW25753   0.350   8.480   0.875
 4565SOL    HW125754   0.255   8.510   0.865
 4565SOL    HW225755   0.373   8.473   0.972
 4566SOL     OW25756   0.933   8.369   0.581
 4566SOL    HW125757   0.884   8.315   0.512
 4566SOL    HW225758   0.866   8.417   0.639
 4567SOL     OW25759   1.291   8.768   1.429
 4567SOL    HW125760   1.329   8.856   1.461
 4567SOL    HW225761   1.192   8.773   1.428
 4568SOL     OW25762   0.091   7.628   0.409
 4568SOL    HW125763   0.140   7.670   0.333
 4568SOL    HW225764   0.117   7.671   0.495
 4569SOL     OW25765   1.690   9.169   0.233
 4569SOL    HW125766   1.782   9.208   0.232
 4569SOL    HW225767   1.651   9.175   0.142
 4570SOL     OW25768   0.831   8.143   1.375
 4570SOL    HW125769   0.805   8.231   1.415
 4570SOL    HW225770   0.886   8.092   1.440
 4571SOL     OW25771   0.190   9.271   1.470
 4571SOL    HW125772   0.192   9.197   1.402
 4571SOL    HW225773   0.134   9.243   1.548
 4572SOL     OW25774   0.802   8.229   0.377
 4572SOL    HW125775   0.703   8.239   0.369
 4572SOL    HW225776   0.836   8.175   0.300
 4573SOL     OW25777   0.343   7.894   0.922
 4573SOL    HW125778   0.404   7.919   0.846
 4573SOL    HW225779   0.389   7.828   0.981
 4574SOL     OW25780   0.300   9.036   0.271
 4574SOL    HW125781   0.326   9.074   0.182
 4574SOL    HW225782   0.299   9.109   0.339
 4575SOL     OW25783   1.438   9.093   1.108
 4575SOL    HW125784   1.420   9.142   1.022
 4575SOL    HW225785   1.513   9.028   1.095
 4576SOL     OW25786   0.080   8.539   0.890
 4576SOL    HW125787   0.007   8.526   0.823
 4576SOL    HW225788   0.066   8.477   0.967
 4577SOL     OW25789   0.647   7.423   0.480
 4577SOL    HW125790   0.627   7.413   0.383
 4577SOL    HW225791   0.679   7.516   0.498
 4578SOL     OW25792   0.089   8.499   0.442
 4578SOL    HW125793   0.179   8.540   0.453
 4578SOL    HW225794   0.061   8.504   0.346
 4579SOL     OW25795   1.303   7.610   0.920
 4579SOL    HW125796   1.319   7.678   0.848
 4579SOL    HW225797   1.334   7.647   1.008
 4580SOL     OW25798   1.374   7.451   0.217
 4580SOL    HW125799   1.358   7.357   0.188
 4580SOL    HW225800   1.341   7.464   0.310
 4581SOL     OW25801   0.737   7.731   0.720
 4581SOL    HW125802   0.729   7.647   0.774
 4581SOL    HW225803   0.832   7.764   0.724
 4582SOL     OW25804   1.285   8.000   1.096
 4582SOL    HW125805   1.269   8.037   1.005
 4582SOL    HW225806   1.339   8.066   1.149
 4583SOL     OW25807   1.593   7.421   0.462
 4583SOL    HW125808   1.607   7.378   0.372
 4583SOL    HW225809   1.498   7.453   0.469
 4584SOL     OW25810   0.584   8.756   1.739
 4584SOL    HW125811   0.560   8.830   1.676
 4584SOL    HW225812   0.663   8.784   1.793
 4585SOL     OW25813   0.429   8.533   1.646
 4585SOL    HW125814   0.468   8.523   1.555
 4585SOL    HW225815   0.466   8.615   1.689
 4586SOL     OW25816   0.103   8.717   1.106
 4586SOL    HW125817   0.095   8.674   1.016
 4586SOL    HW225818   0.012   8.724   1.147
 4587SOL     OW25819   1.154   7.968   0.839
 4587SOL    HW125820   1.231   7.916   0.801
 4587SOL    HW225821   1.110   7.914   0.911
 4588SOL     OW25822   1.760   8.072   1.615
 4588SOL    HW125823   1.802   8.148   1.565
 4588SOL    HW225824   1.817   8.048   1.693
 4589SOL     OW25825   1.382   7.752   1.148
 4589SOL    HW125826   1.352   7.845   1.127
 4589SOL    HW225827   1.382   7.738   1.247
 4590SOL     OW25828   1.288   8.195   0.376
 4590SOL    HW125829   1.246   8.208   0.465
 4590SOL    HW225830   1.384   8.222   0.380
 4591SOL     OW25831   1.556   8.361   0.651
 4591SOL    HW125832   1.547   8.342   0.553
 4591SOL    HW225833   1.467   8.358   0.695
 4592SOL     OW25834   1.873   8.278   1.480
 4592SOL    HW125835   1.817   8.344   1.430
 4592SOL    HW225836   1.939   8.327   1.537
 4593SOL     OW25837   1.577   7.645   0.230
 4593SOL    HW125838   1.582   7.685   0.321
 4593SOL    HW225839   1.501   7.580   0.226
 4594SOL     OW25840   0.783   8.898   1.410
 4594SOL    HW125841   0.739   8.987   1.410
 4594SOL    HW225842   0.729   8.834   1.355
 4595SOL     OW25843   0.210   7.697   1.626
 4595SOL    HW125844   0.212   7.695   1.526
 4595SOL    HW225845   0.119   7.671   1.658
 4596SOL     OW25846   0.042   9.199   1.696
 4596SOL    HW125847   0.087   9.230   1.779
 4596SOL    HW225848   0.026   9.100   1.702
 4597SOL     OW25849   0.206   7.729   0.637
 4597SOL    HW125850   0.152   7.795   0.689
 4597SOL    HW225851   0.263   7.676   0.700
 4598SOL     OW25852   1.414   8.996   1.518
 4598SOL    HW125853   1.351   9.062   1.560
 4598SOL    HW225854   1.474   9.043   1.455
 4599SOL     OW25855   0.247   8.043   0.305
 4599SOL    HW125856   0.315   8.042   0.233
 4599SOL    HW225857   0.285   8.088   0.386
 4600SOL     OW25858   0.360   8.709   1.205
 4600SOL    HW125859   0.357   8.741   1.300
 4600SOL    HW225860   0.271   8.723   1.162
 4601SOL     OW25861   1.177   8.979   1.827
 4601SOL    HW125862   1.157   8.889   1.789
 4601SOL    HW225863   1.196   9.043   1.753
 4602SOL     OW25864   0.772   8.690   0.510
 4602SOL    HW125865   0.778   8.625   0.434
 4602SOL    HW225866   0.773   8.640   0.596
 4603SOL     OW25867   0.375   8.218   0.789
 4603SOL    HW125868   0.380   8.315   0.813
 4603SOL    HW225869   0.461   8.173   0.813
 4604SOL     OW25870   0.265   7.722   0.215
 4604SOL    HW125871   0.321   7.664   0.156
 4604SOL    HW225872   0.224   7.796   0.161
 4605SOL     OW25873   0.086   7.901   0.831
 4605SOL    HW125874   0.025   7.850   0.892
 4605SOL    HW225875   0.180   7.896   0.865
 4606SOL     OW25876   0.527   8.513   0.241
 4606SOL    HW125877   0.624   8.507   0.263
 4606SOL    HW225878   0.508   8.604   0.202
 4607SOL     OW25879   1.131   8.006   0.009
 4607SOL    HW125880   1.136   8.092   9.959
 4607SOL    HW225881   1.201   7.944   9.974
 4608SOL     OW25882   0.894   8.062   0.165
 4608SOL    HW125883   0.981   8.052   0.116
 4608SOL    HW225884   0.862   7.972   0.195
 4609SOL     OW25885   1.329   7.525   0.478
 4609SOL    HW125886   1.244   7.515   0.529
 4609SOL    HW225887   1.350   7.622   0.467
 4610SOL     OW25888   1.338   7.948   1.461
 4610SOL    HW125889   1.302   7.926   1.551
 4610SOL    HW225890   1.282   8.019   1.418
 4611SOL     OW25891   0.091   7.456   0.168
 4611SOL    HW125892   0.046   7.367   0.173
 4611SOL    HW225893   0.125   7.481   0.258
 4612SOL     OW25894   0.382   8.442   1.146
 4612SOL    HW125895   0.386   8.386   1.228
 4612SOL    HW225896   0.383   8.539   1.172
 4613SOL     OW25897   1.634   8.408   0.158
 4613SOL    HW125898   1.731   8.427   0.177
 4613SOL    HW225899   1.626   8.374   0.064
 4614SOL     OW25900   0.644   8.027   1.210
 4614SOL    HW125901   0.704   8.069   1.278
 4614SOL    HW225902   0.564   7.989   1.255
 4615SOL     OW25903   0.788   8.392   1.483
 4615SOL    HW125904   0.852   8.439   1.423
 4615SOL    HW225905   0.784   8.439   1.571
 4616SOL     OW25906   1.187   8.454   1.692
 4616SOL    HW125907   1.105   8.399   1.703
 4616SOL    HW225908   1.266   8.406   1.730
 4617SOL     OW25909   1.083   7.634   0.593
 4617SOL    HW125910   1.046   7.726   0.606
 4617SOL    HW225911   1.069   7.580   0.676
 4618SOL     OW25912   1.232   9.165   1.632
 4618SOL    HW125913   1.155   9.171   1.568
 4618SOL    HW225914   1.248   9.255   1.672
 4619SOL     OW25915   0.690   7.508   0.866
 4619SOL    HW125916   0.627   7.444   0.822
 4619SOL    HW225917   0.764   7.456   0.911
 4620SOL     OW25918   0.993   8.620   0.880
 4620SOL    HW125919   1.029   8.702   0.836
 4620SOL    HW225920   1.069   8.567   0.918
 4621SOL     OW25921   0.668   8.368   0.947
 4621SOL    HW125922   0.704   8.282   0.911
 4621SOL    HW225923   0.594   8.348   1.012
 4622SOL     OW25924   0.114   8.369   1.108
 4622SOL    HW125925   0.208   8.400   1.124
 4622SOL    HW225926   0.115   8.286   1.051
 4623SOL     OW25927   0.314   7.407   0.427
 4623SOL    HW125928   0.362   7.494   0.440
 4623SOL    HW225929   0.233   7.405   0.486
 4624SOL     OW25930   0.654   7.976   1.809
 4624SOL    HW125931   0.653   8.040   1.733
 4624SOL    HW225932   0.738   7.989   1.863
 4625SOL     OW25933   0.059   8.470   0.157
 4625SOL    HW125934   0.071   8.371   0.167
 4625SOL    HW225935   0.146   8.511   0.130
 4626SOL     OW25936   1.770   7.612   0.856
 4626SOL    HW125937   1.732   7.646   0.942
 4626SOL    HW225938   1.867   7.593   0.868
 4627SOL     OW25939   0.797   8.586   1.068
 4627SOL    HW125940   0.746   8.506   1.035
 4627SOL    HW225941   0.872   8.606   1.005
 4628SOL     OW25942   1.228   7.946   0.277
 4628SOL    HW125943   1.248   8.037   0.316
 4628SOL    HW225944   1.203   7.956   0.181
 4629SOL     OW25945   1.555   8.841   1.696
 4629SOL    HW125946   1.511   8.762   1.738
 4629SOL    HW225947   1.491   8.885   1.633
 4630SOL     OW25948   0.305   8.278   1.367
 4630SOL    HW125949   0.341   8.206   1.426
 4630SOL    HW225950   0.269   8.353   1.423
 4631SOL     OW25951   0.808   8.744   0.049
 4631SOL    HW125952   0.767   8.830   0.080
 4631SOL    HW225953   0.883   8.720   0.110
 4632SOL     OW25954   0.768   8.533   0.743
 4632SOL    HW125955   0.850   8.570   0.786
 4632SOL    HW225956   0.719   8.475   0.808
 4633SOL     OW25957   0.979   8.881   0.525
 4633SOL    HW125958   1.040   8.875   0.446
 4633SOL    HW225959   0.904   8.816   0.514
 4634SOL     OW25960   0.156   8.152   0.947
 4634SOL    HW125961   0.235   8.172   0.888
 4634SOL    HW225962   0.102   8.079   0.906
 4635SOL     OW25963   0.099   8.270   1.728
 4635SOL    HW125964   0.031   8.199   1.709
 4635SOL    HW225965   0.145   8.250   1.814
 4636SOL     OW25966   1.012   9.175   1.469
 4636SOL    HW125967   0.987   9.080   1.451
 4636SOL    HW225968   0.944   9.216   1.530
 4637SOL     OW25969   1.228   8.526   1.004
 4637SOL    HW125970   1.249   8.623   1.011
 4637SOL    HW225971   1.265   8.478   1.084
 4638SOL     OW25972   0.608   7.708   1.786
 4638SOL    HW125973   0.673   7.681   1.716
 4638SOL    HW225974   0.617   7.806   1.805
 4639SOL     OW25975   0.531   8.267   0.381
 4639SOL    HW125976   0.513   8.353   0.332
 4639SOL    HW225977   0.451   8.242   0.435
 4640SOL     OW25978   1.568   8.320   0.980
 4640SOL    HW125979   1.611   8.397   0.933
 4640SOL    HW225980   1.533   8.350   1.069
 4641SOL     OW25981   0.059   7.403   0.561
 4641SOL    HW125982   9.970   7.395   0.607
 4641SOL    HW225983   0.059   7.484   0.502
 4642SOL     OW25984   1.271   7.457   1.814
 4642SOL    HW125985   1.318   7.487   1.897
 4642SOL    HW225986   1.213   7.532   1.780
 4643SOL     OW25987   0.511   8.971   1.592
 4643SOL    HW125988   0.454   9.022   1.657
 4643SOL    HW225989   0.565   9.035   1.538
 4644SOL     OW25990   1.784   8.849   1.540
 4644SOL    HW125991   1.831   8.935   1.561
 4644SOL    HW225992   1.703   8.840   1.598
 4645SOL     OW25993   1.039   7.856   1.067
 4645SOL    HW125994   1.112   7.911   1.108
 4645SOL    HW225995   1.050   7.760   1.094
 4646SOL     OW25996   0.393   8.882   0.583
 4646SOL    HW125997   0.419   8.801   0.636
 4646SOL    HW225998   0.312   8.923   0.624
 4647SOL     OW25999   1.199   8.995   1.198
 4647SOL    HW126000   1.125   9.058   1.174
 4647SOL    HW226001   1.287   9.039   1.178
 4648SOL     OW26002   0.363   9.110   1.766
 4648SOL    HW126003   0.312   9.191   1.739
 4648SOL    HW226004   0.357   9.099   1.866
 4649SOL     OW26005   0.115   8.756   1.599
 4649SOL    HW126006   0.107   8.658   1.581
 4649SOL    HW226007   0.058   8.806   1.533
 4650SOL     OW26008   1.049   7.532   0.843
 4650SOL    HW126009   1.139   7.552   0.883
 4650SOL    HW226010   0.995   7.478   0.906
 4651SOL     OW26011   1.096   8.558   0.460
 4651SOL    HW126012   1.183   8.579   0.506
 4651SOL    HW226013   1.046   8.489   0.513
 4652SOL     OW26014   1.629   7.831   0.746
 4652SOL    HW126015   1.646   7.913   0.801
 4652SOL    HW226016   1.682   7.754   0.783
 4653SOL     OW26017   0.793   8.509   0.302
 4653SOL    HW126018   0.871   8.561   0.265
 4653SOL    HW226019   0.818   8.413   0.312
 4654SOL     OW26020   0.817   7.578   0.100
 4654SOL    HW126021   0.885   7.506   0.110
 4654SOL    HW226022   0.842   7.656   0.157
 4655SOL     OW26023   0.541   7.934   0.738
 4655SOL    HW126024   0.600   7.854   0.750
 4655SOL    HW226025   0.575   7.989   0.661
 4656SOL     OW26026   0.553   8.510   1.407
 4656SOL    HW126027   0.637   8.460   1.427
 4656SOL    HW226028   0.575   8.594   1.358
 4657SOL     OW26029   1.756   8.483   1.334
 4657SOL    HW126030   1.755   8.582   1.317
 4657SOL    HW226031   1.810   8.438   1.263
 4658SOL     OW26032   0.264   8.633   0.063
 4658SOL    HW126033   0.185   8.694   0.055
 4658SOL    HW226034   0.339   8.683   0.107
 4659SOL     OW26035   0.702   8.976   0.165
 4659SOL    HW126036   0.681   9.074   0.154
 4659SOL    HW226037   0.667   8.944   0.253
 4660SOL     OW26038   1.330   8.502   1.461
 4660SOL    HW126039   1.272   8.470   1.537
 4660SOL    HW226040   1.317   8.601   1.450
 4661SOL     OW26041   0.663   9.151   1.449
 4661SOL    HW126042   0.714   9.197   1.521
 4661SOL    HW226043   0.614   9.219   1.393
 4662SOL     OW26044   0.202   7.951   1.736
 4662SOL    HW126045   0.225   7.858   1.706
 4662SOL    HW226046   0.281   7.991   1.783
 4663SOL     OW26047   1.664   8.938   1.083
 4663SOL    HW126048   1.722   9.016   1.107
 4663SOL    HW226049   1.683   8.862   1.146
 4664SOL     OW26050   0.023   8.248   0.519
 4664SOL    HW126051   0.050   8.344   0.509
 4664SOL    HW226052   9.939   8.231   0.467
 4665SOL     OW26053   0.625   8.158   1.612
 4665SOL    HW126054   0.534   8.135   1.577
 4665SOL    HW226055   0.653   8.247   1.575
 4666SOL     OW26056   1.658   8.548   0.849
 4666SOL    HW126057   1.639   8.646   0.848
 4666SOL    HW226058   1.628   8.508   0.763
 4667SOL     OW26059   0.767   7.913   1.002
 4667SOL    HW126060   0.862   7.892   1.024
 4667SOL    HW226061   0.723   7.958   1.080
 4668SOL     OW26062   0.637   8.726   1.247
 4668SOL    HW126063   0.542   8.736   1.216
 4668SOL    HW226064   0.691   8.682   1.175
 4669SOL     OW26065   0.207   8.067   1.207
 4669SOL    HW126066   0.240   8.146   1.258
 4669SOL    HW226067   0.195   8.092   1.111
 4670SOL     OW26068   0.351   8.795   1.460
 4670SOL    HW126069   0.412   8.861   1.503
 4670SOL    HW226070   0.268   8.786   1.514
 4671SOL     OW26071   1.652   9.086   1.787
 4671SOL    HW126072   1.616   8.995   1.767
 4671SOL    HW226073   1.619   9.150   1.717
 4672SOL     OW26074   1.361   8.602   0.542
 4672SOL    HW126075   1.454   8.624   0.573
 4672SOL    HW226076   1.364   8.577   0.445
 4673SOL     OW26077   0.662   7.779   0.468
 4673SOL    HW126078   0.568   7.747   0.451
 4673SOL    HW226079   0.689   7.755   0.561
 4674SOL     OW26080   1.638   7.404   0.733
 4674SOL    HW126081   1.624   7.422   0.636
 4674SOL    HW226082   1.687   7.481   0.774
 4675SOL     OW26083   1.189   8.162   1.364
 4675SOL    HW126084   1.281   8.179   1.329
 4675SOL    HW226085   1.121   8.206   1.305
 4676SOL     OW26086   0.759   8.131   0.830
 4676SOL    HW126087   0.751   8.050   0.888
 4676SOL    HW226088   0.757   8.104   0.734
 4677SOL     OW26089   1.288   8.790   1.037
 4677SOL    HW126090   1.240   8.852   1.099
 4677SOL    HW226091   1.307   8.838   0.951
 4678SOL     OW26092   1.355   7.809   0.734
 4678SOL    HW126093   1.336   7.800   0.636
 4678SOL    HW226094   1.453   7.821   0.749
 4679SOL     OW26095   1.206   8.758   2.531
 4679SOL    HW126096   1.259   8.838   2.557
 4679SOL    HW226097   1.255   8.707   2.460
 4680SOL     OW26098   1.624   8.684   2.408
 4680SOL    HW126099   1.633   8.751   2.481
 4680SOL    HW226100   1.713   8.644   2.388
 4681SOL     OW26101   1.649   8.045   3.236
 4681SOL    HW126102   1.574   8.006   3.290
 4681SOL    HW226103   1.703   8.107   3.292
 4682SOL     OW26104   0.380   7.563   1.797
 4682SOL    HW126105   0.320   7.608   1.731
 4682SOL    HW226106   0.467   7.613   1.802
 4683SOL     OW26107   1.376   8.956   2.606
 4683SOL    HW126108   1.370   9.056   2.609
 4683SOL    HW226109   1.469   8.927   2.630
 4684SOL     OW26110   1.005   8.241   3.561
 4684SOL    HW126111   0.987   8.170   3.494
 4684SOL    HW226112   0.931   8.308   3.560
 4685SOL     OW26113   0.609   7.371   1.983
 4685SOL    HW126114   0.692   7.421   2.010
 4685SOL    HW226115   0.575   7.406   1.896
 4686SOL     OW26116   1.608   8.455   3.414
 4686SOL    HW126117   1.513   8.484   3.401
 4686SOL    HW226118   1.662   8.482   3.335
 4687SOL     OW26119   1.471   8.447   3.106
 4687SOL    HW126120   1.419   8.475   3.186
 4687SOL    HW226121   1.568   8.468   3.120
 4688SOL     OW26122   0.992   8.697   3.339
 4688SOL    HW126123   0.900   8.736   3.326
 4688SOL    HW226124   1.002   8.617   3.281
 4689SOL     OW26125   0.722   8.013   2.430
 4689SOL    HW126126   0.749   8.073   2.355
 4689SOL    HW226127   0.697   7.924   2.393
 4690SOL     OW26128   1.276   7.916   3.627
 4690SOL    HW126129   1.372   7.894   3.645
 4690SOL    HW226130   1.224   7.831   3.614
 4691SOL     OW26131   0.433   8.803   1.963
 4691SOL    HW126132   0.481   8.787   1.877
 4691SOL    HW226133   0.468   8.886   2.007
 4692SOL     OW26134   0.875   9.191   2.353
 4692SOL    HW126135   0.911   9.110   2.307
 4692SOL    HW226136   0.795   9.224   2.304
 4693SOL     OW26137   1.837   9.034   2.267
 4693SOL    HW126138   1.911   8.970   2.248
 4693SOL    HW226139   1.789   9.055   2.182
 4694SOL     OW26140   1.667   7.703   2.960
 4694SOL    HW126141   1.707   7.792   2.978
 4694SOL    HW226142   1.569   7.712   2.948
 4695SOL     OW26143   1.048   7.724   2.276
 4695SOL    HW126144   1.035   7.810   2.325
 4695SOL    HW226145   1.068   7.652   2.342
 4696SOL     OW26146   0.254   8.408   3.476
 4696SOL    HW126147   0.322   8.470   3.516
 4696SOL    HW226148   0.192   8.376   3.548
 4697SOL     OW26149   0.403   8.080   1.858
 4697SOL    HW126150   0.420   8.178   1.861
 4697SOL    HW226151   0.490   8.031   1.854
 4698SOL     OW26152   1.002   8.012   3.400
 4698SOL    HW126153   1.035   7.937   3.458
 4698SOL    HW226154   1.076   8.045   3.342
 4699SOL     OW26155   1.642   8.849   2.663
 4699SOL    HW126156   1.649   8.875   2.759
 4699SOL    HW226157   1.693   8.914   2.607
 4700SOL     OW26158   1.144   7.648   2.034
 4700SOL    HW126159   1.239   7.620   2.037
 4700SOL    HW226160   1.116   7.684   2.123
 4701SOL     OW26161   0.350   7.895   3.108
 4701SOL    HW126162   0.445   7.915   3.086
 4701SOL    HW226163   0.290   7.960   3.060
 4702SOL     OW26164   1.440   8.175   3.115
 4702SOL    HW126165   1.452   8.273   3.101
 4702SOL    HW226166   1.526   8.135   3.147
 4703SOL     OW26167   0.537   7.530   2.309
 4703SOL    HW126168   0.508   7.470   2.383
 4703SOL    HW226169   0.465   7.534   2.239
 4704SOL     OW26170   1.782   7.944   3.020
 4704SOL    HW126171   1.874   7.984   3.018
 4704SOL    HW226172   1.733   7.978   3.100
 4705SOL     OW26173   1.856   9.142   3.005
 4705SOL    HW126174   1.872   9.177   3.097
 4705SOL    HW226175   1.942   9.113   2.965
 4706SOL     OW26176   0.989   7.932   2.432
 4706SOL    HW126177   1.043   7.950   2.515
 4706SOL    HW226178   0.900   7.978   2.439
 4707SOL     OW26179   1.253   8.357   2.020
 4707SOL    HW126180   1.265   8.317   2.111
 4707SOL    HW226181   1.224   8.285   1.956
 4708SOL     OW26182   1.114   7.692   3.602
 4708SOL    HW126183   1.112   7.679   3.701
 4708SOL    HW226184   1.030   7.654   3.562
 4709SOL     OW26185   1.756   8.074   2.211
 4709SOL    HW126186   1.716   7.982   2.214
 4709SOL    HW226187   1.816   8.086   2.290
 4710SOL     OW26188   0.974   9.128   1.968
 4710SOL    HW126189   1.037   9.075   1.912
 4710SOL    HW226190   0.952   9.078   2.052
 4711SOL     OW26191   0.788   7.425   3.603
 4711SOL    HW126192   0.796   7.330   3.572
 4711SOL    HW226193   0.791   7.427   3.703
 4712SOL     OW26194   1.745   8.035   2.763
 4712SOL    HW126195   1.718   8.131   2.768
 4712SOL    HW226196   1.748   7.996   2.856
 4713SOL     OW26197   1.102   8.665   3.605
 4713SOL    HW126198   1.150   8.578   3.595
 4713SOL    HW226199   1.054   8.687   3.520
 4714SOL     OW26200   0.817   8.441   3.564
 4714SOL    HW126201   0.788   8.537   3.567
 4714SOL    HW226202   0.790   8.395   3.649
 4715SOL     OW26203   1.732   7.612   3.583
 4715SOL    HW126204   1.701   7.627   3.677
 4715SOL    HW226205   1.684   7.532   3.545
 4716SOL     OW26206   1.110   8.180   2.802
 4716SOL    HW126207   1.079   8.260   2.751
 4716SOL    HW226208   1.112   8.100   2.741
 4717SOL     OW26209   0.225   8.903   2.326
 4717SOL    HW126210   0.324   8.911   2.313
 4717SOL    HW226211   0.177   8.932   2.243
 4718SOL     OW26212   1.476   8.805   3.100
 4718SOL    HW126213   1.456   8.856   3.017
 4718SOL    HW226214   1.391   8.785   3.148
 4719SOL     OW26215   0.124   9.053   2.550
 4719SOL    HW126216   0.089   9.125   2.491
 4719SOL    HW226217   0.161   8.979   2.494
 4720SOL     OW26218   1.743   8.785   3.142
 4720SOL    HW126219   1.770   8.815   3.234
 4720SOL    HW226220   1.643   8.788   3.135
 4721SOL     OW26221   0.477   8.348   1.852
 4721SOL    HW126222   0.456   8.398   1.768
 4721SOL    HW226223   0.490   8.412   1.928
 4722SOL     OW26224   1.026   8.487   3.152
 4722SOL    HW126225   1.036   8.392   3.122
 4722SOL    HW226226   1.064   8.549   3.083
 4723SOL     OW26227   1.575   8.279   2.256
 4723SOL    HW126228   1.636   8.200   2.244
 4723SOL    HW226229   1.590   8.345   2.182
 4724SOL     OW26230   0.758   8.276   1.888
 4724SOL    HW126231   0.773   8.186   1.928
 4724SOL    HW226232   0.660   8.288   1.870
 4725SOL     OW26233   1.378   7.828   2.281
 4725SOL    HW126234   1.328   7.889   2.219
 4725SOL    HW226235   1.476   7.840   2.268
 4726SOL     OW26236   0.334   8.033   3.348
 4726SOL    HW126237   0.336   7.964   3.275
 4726SOL    HW226238   0.291   7.994   3.430
 4727SOL     OW26239   0.215   7.723   3.282
 4727SOL    HW126240   0.262   7.774   3.210
 4727SOL    HW226241   0.156   7.654   3.240
 4728SOL     OW26242   1.026   8.226   3.060
 4728SOL    HW126243   1.055   8.211   2.965
 4728SOL    HW226244   0.939   8.180   3.076
 4729SOL     OW26245   1.665   7.819   2.306
 4729SOL    HW126246   1.744   7.759   2.294
 4729SOL    HW226247   1.651   7.836   2.403
 4730SOL     OW26248   0.853   7.783   2.089
 4730SOL    HW126249   0.774   7.792   2.150
 4730SOL    HW226250   0.935   7.766   2.144
 4731SOL     OW26251   1.022   8.716   1.979
 4731SOL    HW126252   1.092   8.751   2.041
 4731SOL    HW226253   1.058   8.713   1.886
 4732SOL     OW26254   1.772   9.041   2.529
 4732SOL    HW126255   1.727   9.128   2.549
 4732SOL    HW226256   1.788   9.034   2.430
 4733SOL     OW26257   1.233   8.377   2.489
 4733SOL    HW126258   1.260   8.465   2.452
 4733SOL    HW226259   1.144   8.385   2.534
 4734SOL     OW26260   0.898   9.028   3.501
 4734SOL    HW126261   0.854   8.988   3.420
 4734SOL    HW226262   0.872   8.975   3.582
 4735SOL     OW26263   1.395   8.321   2.707
 4735SOL    HW126264   1.324   8.318   2.637
 4735SOL    HW226265   1.376   8.397   2.770
 4736SOL     OW26266   1.249   8.774   3.263
 4736SOL    HW126267   1.290   8.850   3.315
 4736SOL    HW226268   1.154   8.763   3.289
 4737SOL     OW26269   1.707   9.151   2.050
 4737SOL    HW126270   1.790   9.206   2.042
 4737SOL    HW226271   1.677   9.123   1.959
 4738SOL     OW26272   0.813   8.105   3.207
 4738SOL    HW126273   0.798   8.197   3.242
 4738SOL    HW226274   0.873   8.055   3.269
 4739SOL     OW26275   0.259   9.211   3.329
 4739SOL    HW126276   0.232   9.288   3.271
 4739SOL    HW226277   0.204   9.212   3.413
 4740SOL     OW26278   0.801   8.147   2.211
 4740SOL    HW126279   0.736   8.220   2.193
 4740SOL    HW226280   0.836   8.111   2.125
 4741SOL     OW26281   0.369   9.161   2.042
 4741SOL    HW126282   0.451   9.212   2.017
 4741SOL    HW226283   0.352   9.171   2.140
 4742SOL     OW26284   9.928   8.641   2.827
 4742SOL    HW126285   9.864   8.646   2.750
 4742SOL    HW226286   9.961   8.547   2.837
 4743SOL     OW26287   0.814   7.495   2.305
 4743SOL    HW126288   0.842   7.483   2.209
 4743SOL    HW226289   0.715   7.496   2.311
 4744SOL     OW26290   9.990   8.763   2.339
 4744SOL    HW126291   0.082   8.802   2.347
 4744SOL    HW226292   9.989   8.694   2.266
 4745SOL     OW26293   1.578   7.732   3.373
 4745SOL    HW126294   1.529   7.818   3.384
 4745SOL    HW226295   1.626   7.710   3.458
 4746SOL     OW26296   1.249   7.655   2.719
 4746SOL    HW126297   1.291   7.715   2.651
 4746SOL    HW226298   1.299   7.662   2.805
 4747SOL     OW26299   1.403   7.539   2.056
 4747SOL    HW126300   1.479   7.475   2.046
 4747SOL    HW226301   1.372   7.539   2.151
 4748SOL     OW26302   1.567   7.415   3.487
 4748SOL    HW126303   1.568   7.383   3.393
 4748SOL    HW226304   1.479   7.458   3.507
 4749SOL     OW26305   1.308   8.021   2.933
 4749SOL    HW126306   1.262   8.085   2.870
 4749SOL    HW226307   1.362   8.073   2.999
 4750SOL     OW26308   1.565   7.420   2.335
 4750SOL    HW126309   1.584   7.388   2.242
 4750SOL    HW226310   1.477   7.467   2.337
 4751SOL     OW26311   0.709   8.696   3.564
 4751SOL    HW126312   0.712   8.731   3.470
 4751SOL    HW226313   0.744   8.765   3.627
 4752SOL     OW26314   0.486   8.540   3.557
 4752SOL    HW126315   0.502   8.498   3.467
 4752SOL    HW226316   0.561   8.602   3.579
 4753SOL     OW26317   0.108   8.827   2.926
 4753SOL    HW126318   0.060   8.754   2.878
 4753SOL    HW226319   0.042   8.894   2.959
 4754SOL     OW26320   1.139   7.951   2.659
 4754SOL    HW126321   1.226   7.918   2.622
 4754SOL    HW226322   1.111   7.895   2.736
 4755SOL     OW26323   1.759   8.012   3.578
 4755SOL    HW126324   1.756   8.089   3.514
 4755SOL    HW226325   1.854   7.991   3.599
 4756SOL     OW26326   1.387   7.751   2.949
 4756SOL    HW126327   1.368   7.849   2.939
 4756SOL    HW226328   1.374   7.724   3.044
 4757SOL     OW26329   1.540   7.863   3.659
 4757SOL    HW126330   1.620   7.916   3.632
 4757SOL    HW226331   1.568   7.792   3.723
 4758SOL     OW26332   1.306   8.240   2.262
 4758SOL    HW126333   1.267   8.277   2.347
 4758SOL    HW226334   1.405   8.250   2.264
 4759SOL     OW26335   1.582   8.382   2.513
 4759SOL    HW126336   1.569   8.351   2.419
 4759SOL    HW226337   1.507   8.350   2.570
 4760SOL     OW26338   1.767   8.228   3.397
 4760SOL    HW126339   1.697   8.300   3.400
 4760SOL    HW226340   1.858   8.269   3.404
 4761SOL     OW26341   1.582   7.763   2.044
 4761SOL    HW126342   1.619   7.774   2.137
 4761SOL    HW226343   1.516   7.689   2.043
 4762SOL     OW26344   0.728   8.797   3.308
 4762SOL    HW126345   0.698   8.892   3.307
 4762SOL    HW226346   0.669   8.743   3.247
 4763SOL     OW26347   0.183   7.671   3.548
 4763SOL    HW126348   0.202   7.687   3.451
 4763SOL    HW226349   0.093   7.629   3.558
 4764SOL     OW26350   0.135   9.233   3.583
 4764SOL    HW126351   0.226   9.202   3.611
 4764SOL    HW226352   0.066   9.189   3.641
 4765SOL     OW26353   1.376   8.979   3.394
 4765SOL    HW126354   1.298   9.018   3.444
 4765SOL    HW226355   1.414   9.047   3.332
 4766SOL     OW26356   1.777   7.628   3.208
 4766SOL    HW126357   1.708   7.666   3.270
 4766SOL    HW226358   1.746   7.639   3.114
 4767SOL     OW26359   0.355   9.220   2.576
 4767SOL    HW126360   0.277   9.163   2.600
 4767SOL    HW226361   0.365   9.224   2.477
 4768SOL     OW26362   0.301   8.709   3.085
 4768SOL    HW126363   0.297   8.756   3.173
 4768SOL    HW226364   0.233   8.748   3.023
 4769SOL     OW26365   1.239   8.887   3.703
 4769SOL    HW126366   1.198   8.799   3.679
 4769SOL    HW226367   1.210   8.956   3.637
 4770SOL     OW26368   0.182   7.516   1.992
 4770SOL    HW126369   0.263   7.537   1.937
 4770SOL    HW226370   0.211   7.490   2.085
 4771SOL     OW26371   0.540   8.549   2.031
 4771SOL    HW126372   0.638   8.561   2.013
 4771SOL    HW226373   0.493   8.637   2.022
 4772SOL     OW26374   1.129   8.110   1.888
 4772SOL    HW126375   1.082   8.182   1.837
 4772SOL    HW226376   1.172   8.046   1.825
 4773SOL     OW26377   0.874   8.026   1.968
 4773SOL    HW126378   0.969   8.050   1.948
 4773SOL    HW226379   0.871   7.935   2.009
 4774SOL     OW26380   1.330   7.562   2.316
 4774SOL    HW126381   1.255   7.543   2.380
 4774SOL    HW226382   1.343   7.661   2.310
 4775SOL     OW26383   1.423   7.964   3.374
 4775SOL    HW126384   1.403   7.986   3.469
 4775SOL    HW226385   1.345   7.990   3.317
 4776SOL     OW26386   9.992   7.411   1.830
 4776SOL    HW126387   0.011   7.313   1.821
 4776SOL    HW226388   0.058   7.451   1.894
 4777SOL     OW26389   0.253   8.441   3.030
 4777SOL    HW126390   0.271   8.389   3.113
 4777SOL    HW226391   0.272   8.537   3.045
 4778SOL     OW26392   1.642   8.430   2.041
 4778SOL    HW126393   1.734   8.462   2.060
 4778SOL    HW226394   1.632   8.414   1.942
 4779SOL     OW26395   0.609   7.990   3.055
 4779SOL    HW126396   0.674   8.031   3.118
 4779SOL    HW226397   0.613   8.038   2.967
 4780SOL     OW26398   0.825   8.367   3.302
 4780SOL    HW126399   0.897   8.414   3.251
 4780SOL    HW226400   0.828   8.396   3.398
 4781SOL     OW26401   1.210   8.418   3.536
 4781SOL    HW126402   1.131   8.358   3.540
 4781SOL    HW226403   1.292   8.368   3.562
 4782SOL     OW26404   1.117   7.552   2.490
 4782SOL    HW126405   1.153   7.580   2.579
 4782SOL    HW226406   1.030   7.504   2.504
 4783SOL     OW26407   1.166   9.079   3.526
 4783SOL    HW126408   1.067   9.074   3.515
 4783SOL    HW226409   1.192   9.167   3.566
 4784SOL     OW26410   0.437   9.110   3.149
 4784SOL    HW126411   0.380   9.073   3.076
 4784SOL    HW226412   0.379   9.152   3.219
 4785SOL     OW26413   1.142   8.610   2.749
 4785SOL    HW126414   1.155   8.671   2.671
 4785SOL    HW226415   1.229   8.595   2.795
 4786SOL     OW26416   0.769   8.330   2.758
 4786SOL    HW126417   0.752   8.234   2.736
 4786SOL    HW226418   0.681   8.379   2.765
 4787SOL     OW26419   0.022   8.391   2.893
 4787SOL    HW126420   0.109   8.412   2.936
 4787SOL    HW226421   9.966   8.335   2.954
 4788SOL     OW26422   0.256   7.410   2.258
 4788SOL    HW126423   0.320   7.383   2.330
 4788SOL    HW226424   0.163   7.416   2.296
 4789SOL     OW26425   0.718   8.010   3.535
 4789SOL    HW126426   0.666   8.075   3.480
 4789SOL    HW226427   0.808   7.997   3.494
 4790SOL     OW26428   1.776   7.631   2.714
 4790SOL    HW126429   1.737   7.646   2.805
 4790SOL    HW226430   1.875   7.620   2.721
 4791SOL     OW26431   1.256   8.013   2.119
 4791SOL    HW126432   1.268   8.090   2.181
 4791SOL    HW226433   1.204   8.042   2.039
 4792SOL     OW26434   1.558   8.841   3.542
 4792SOL    HW126435   1.526   8.756   3.584
 4792SOL    HW226436   1.485   8.881   3.487
 4793SOL     OW26437   0.261   8.272   3.248
 4793SOL    HW126438   0.287   8.180   3.277
 4793SOL    HW226439   0.266   8.335   3.325
 4794SOL     OW26440   0.789   8.845   1.893
 4794SOL    HW126441   0.749   8.909   1.959
 4794SOL    HW226442   0.866   8.797   1.935
 4795SOL     OW26443   0.609   9.118   2.928
 4795SOL    HW126444   0.689   9.065   2.953
 4795SOL    HW226445   0.550   9.130   3.008
 4796SOL     OW26446   1.015   8.391   2.660
 4796SOL    HW126447   1.048   8.478   2.697
 4796SOL    HW226448   0.921   8.376   2.690
 4797SOL     OW26449   0.937   8.966   2.198
 4797SOL    HW126450   1.032   8.936   2.193
 4797SOL    HW226451   0.880   8.891   2.233
 4798SOL     OW26452   0.081   8.314   3.669
 4798SOL    HW126453   0.047   8.224   3.643
 4798SOL    HW226454   0.103   8.316   3.767
 4799SOL     OW26455   1.386   8.550   2.866
 4799SOL    HW126456   1.466   8.596   2.828
 4799SOL    HW226457   1.408   8.513   2.956
 4800SOL     OW26458   0.563   7.763   3.682
 4800SOL    HW126459   0.646   7.758   3.627
 4800SOL    HW226460   0.547   7.858   3.709
 4801SOL     OW26461   0.604   8.327   2.178
 4801SOL    HW126462   0.580   8.410   2.129
 4801SOL    HW226463   0.536   8.309   2.250
 4802SOL     OW26464   1.659   8.298   2.801
 4802SOL    HW126465   1.680   8.394   2.783
 4802SOL    HW226466   1.563   8.281   2.780
 4803SOL     OW26467   1.360   7.676   3.209
 4803SOL    HW126468   1.443   7.692   3.263
 4803SOL    HW226469   1.291   7.632   3.267
 4804SOL     OW26470   0.016   7.396   2.412
 4804SOL    HW126471   9.940   7.395   2.348
 4804SOL    HW226472   9.986   7.432   2.500
 4805SOL     OW26473   1.332   7.518   3.594
 4805SOL    HW126474   1.357   7.504   3.690
 4805SOL    HW226475   1.261   7.589   3.589
 4806SOL     OW26476   1.794   8.852   3.405
 4806SOL    HW126477   1.835   8.940   3.427
 4806SOL    HW226478   1.708   8.842   3.454
 4807SOL     OW26479   1.080   7.865   2.922
 4807SOL    HW126480   1.154   7.930   2.941
 4807SOL    HW226481   1.115   7.772   2.935
 4808SOL     OW26482   0.074   8.725   3.449
 4808SOL    HW126483   0.032   8.635   3.465
 4808SOL    HW226484   0.014   8.780   3.391
 4809SOL     OW26485   0.296   9.030   2.927
 4809SOL    HW126486   0.234   8.952   2.920
 4809SOL    HW226487   0.361   9.028   2.851
 4810SOL     OW26488   1.646   7.845   2.585
 4810SOL    HW126489   1.676   7.923   2.639
 4810SOL    HW226490   1.689   7.761   2.620
 4811SOL     OW26491   0.808   8.540   1.979
 4811SOL    HW126492   0.895   8.587   1.994
 4811SOL    HW226493   0.822   8.441   1.980
 4812SOL     OW26494   0.857   7.513   2.013
 4812SOL    HW126495   0.955   7.497   2.012
 4812SOL    HW226496   0.839   7.611   2.023
 4813SOL     OW26497   0.564   8.444   3.312
 4813SOL    HW126498   0.658   8.411   3.303
 4813SOL    HW226499   0.548   8.519   3.247
 4814SOL     OW26500   1.730   8.512   3.175
 4814SOL    HW126501   1.743   8.610   3.160
 4814SOL    HW226502   1.791   8.461   3.114
 4815SOL     OW26503   0.160   8.837   1.868
 4815SOL    HW126504   0.145   8.807   1.774
 4815SOL    HW226505   0.253   8.814   1.896
 4816SOL     OW26506   0.649   9.029   2.041
 4816SOL    HW126507   0.631   9.100   1.972
 4816SOL    HW226508   0.668   9.072   2.129
 4817SOL     OW26509   1.355   8.533   3.336
 4817SOL    HW126510   1.295   8.492   3.404
 4817SOL    HW226511   1.318   8.622   3.309
 4818SOL     OW26512   0.655   9.059   3.313
 4818SOL    HW126513   0.661   9.132   3.380
 4818SOL    HW226514   0.577   9.076   3.252
 4819SOL     OW26515   0.241   7.938   3.589
 4819SOL    HW126516   0.225   7.839   3.588
 4819SOL    HW226517   0.322   7.958   3.644
 4820SOL     OW26518   1.684   8.943   2.915
 4820SOL    HW126519   1.730   9.030   2.930
 4820SOL    HW226520   1.703   8.881   2.991
 4821SOL     OW26521   0.556   8.181   3.405
 4821SOL    HW126522   0.475   8.127   3.384
 4821SOL    HW226523   0.545   8.274   3.370
 4822SOL     OW26524   1.664   8.574   2.701
 4822SOL    HW126525   1.652   8.671   2.684
 4822SOL    HW226526   1.633   8.522   2.622
 4823SOL     OW26527   0.811   7.893   2.868
 4823SOL    HW126528   0.908   7.884   2.889
 4823SOL    HW226529   0.758   7.886   2.953
 4824SOL     OW26530   0.564   8.654   3.133
 4824SOL    HW126531   0.469   8.680   3.117
 4824SOL    HW226532   0.609   8.638   3.045
 4825SOL     OW26533   0.198   8.117   3.019
 4825SOL    HW126534   0.230   8.183   3.086
 4825SOL    HW226535   0.200   8.158   2.928
 4826SOL     OW26536   0.288   8.842   3.319
 4826SOL    HW126537   0.287   8.942   3.332
 4826SOL    HW226538   0.210   8.802   3.368
 4827SOL     OW26539   1.639   9.083   3.657
 4827SOL    HW126540   1.613   8.992   3.625
 4827SOL    HW226541   1.567   9.148   3.633
 4828SOL     OW26542   1.359   8.603   2.359
 4828SOL    HW126543   1.455   8.622   2.381
 4828SOL    HW226544   1.348   8.597   2.260
 4829SOL     OW26545   0.695   7.761   2.313
 4829SOL    HW126546   0.619   7.695   2.314
 4829SOL    HW226547   0.778   7.716   2.345
 4830SOL     OW26548   1.727   7.409   2.552
 4830SOL    HW126549   1.657   7.421   2.481
 4830SOL    HW226550   1.728   7.490   2.611
 4831SOL     OW26551   1.202   8.107   3.234
 4831SOL    HW126552   1.293   8.135   3.204
 4831SOL    HW226553   1.133   8.148   3.174
 4832SOL     OW26554   0.703   8.076   2.698
 4832SOL    HW126555   0.745   8.001   2.749
 4832SOL    HW226556   0.704   8.054   2.600
 4833SOL     OW26557   1.369   7.837   2.555
 4833SOL    HW126558   1.357   7.840   2.455
 4833SOL    HW226559   1.466   7.845   2.577
 4834SOL     OW26560   1.083   8.843   4.434
 4834SOL    HW126561   1.175   8.881   4.439
 4834SOL    HW226562   1.043   8.862   4.344
 4835SOL     OW26563   1.616   8.655   4.237
 4835SOL    HW126564   1.636   8.748   4.269
 4835SOL    HW226565   1.701   8.606   4.222
 4836SOL     OW26566   1.627   8.009   5.118
 4836SOL    HW126567   1.539   7.976   5.151
 4836SOL    HW226568   1.689   8.021   5.195
 4837SOL     OW26569   0.374   7.576   3.718
 4837SOL    HW126570   0.301   7.602   3.655
 4837SOL    HW226571   0.451   7.639   3.708
 4838SOL     OW26572   1.337   8.943   4.494
 4838SOL    HW126573   1.345   9.042   4.505
 4838SOL    HW226574   1.428   8.903   4.483
 4839SOL     OW26575   1.019   8.228   5.387
 4839SOL    HW126576   1.009   8.141   5.339
 4839SOL    HW226577   0.957   8.295   5.347
 4840SOL     OW26578   0.567   7.399   3.856
 4840SOL    HW126579   0.653   7.447   3.873
 4840SOL    HW226580   0.502   7.461   3.813
 4841SOL     OW26581   1.593   8.472   5.265
 4841SOL    HW126582   1.506   8.459   5.216
 4841SOL    HW226583   1.613   8.570   5.272
 4842SOL     OW26584   1.478   8.406   4.896
 4842SOL    HW126585   1.427   8.415   4.982
 4842SOL    HW226586   1.513   8.496   4.869
 4843SOL     OW26587   1.036   8.715   5.163
 4843SOL    HW126588   0.963   8.782   5.158
 4843SOL    HW226589   1.015   8.636   5.105
 4844SOL     OW26590   0.507   8.641   4.398
 4844SOL    HW126591   0.456   8.566   4.440
 4844SOL    HW226592   0.605   8.620   4.400
 4845SOL     OW26593   0.750   8.007   4.268
 4845SOL    HW126594   0.766   8.090   4.215
 4845SOL    HW226595   0.711   7.937   4.209
 4846SOL     OW26596   1.331   7.912   5.475
 4846SOL    HW126597   1.431   7.905   5.469
 4846SOL    HW226598   1.296   7.834   5.527
 4847SOL     OW26599   0.587   7.701   4.705
 4847SOL    HW126600   0.645   7.782   4.700
 4847SOL    HW226601   0.637   7.622   4.669
 4848SOL     OW26602   0.295   8.156   4.121
 4848SOL    HW126603   0.302   8.172   4.220
 4848SOL    HW226604   0.206   8.115   4.100
 4849SOL     OW26605   0.721   9.038   4.271
 4849SOL    HW126606   0.794   8.971   4.254
 4849SOL    HW226607   0.736   9.118   4.213
 4850SOL     OW26608   1.779   8.972   4.119
 4850SOL    HW126609   1.873   8.940   4.101
 4850SOL    HW226610   1.749   9.030   4.044
 4851SOL     OW26611   1.060   7.804   4.079
 4851SOL    HW126612   1.124   7.878   4.059
 4851SOL    HW226613   1.036   7.806   4.176
 4852SOL     OW26614   0.501   8.040   3.704
 4852SOL    HW126615   0.479   8.137   3.711
 4852SOL    HW226616   0.582   8.029   3.646
 4853SOL     OW26617   0.664   9.000   4.542
 4853SOL    HW126618   0.687   9.016   4.446
 4853SOL    HW226619   0.575   8.955   4.548
 4854SOL     OW26620   1.028   7.973   5.287
 4854SOL    HW126621   1.012   7.913   5.367
 4854SOL    HW226622   1.098   7.932   5.229
 4855SOL     OW26623   1.601   8.858   4.515
 4855SOL    HW126624   1.607   8.879   4.612
 4855SOL    HW226625   1.668   8.911   4.464
 4856SOL     OW26626   0.347   8.625   4.174
 4856SOL    HW126627   0.412   8.639   4.248
 4856SOL    HW226628   0.396   8.596   4.091
 4857SOL     OW26629   1.129   7.641   3.865
 4857SOL    HW126630   1.173   7.556   3.894
 4857SOL    HW226631   1.109   7.697   3.946
 4858SOL     OW26632   0.378   8.007   4.840
 4858SOL    HW126633   0.355   7.911   4.856
 4858SOL    HW226634   0.296   8.063   4.848
 4859SOL     OW26635   1.463   8.128   4.929
 4859SOL    HW126636   1.476   8.226   4.915
 4859SOL    HW226637   1.529   8.094   4.996
 4860SOL     OW26638   0.396   7.681   4.155
 4860SOL    HW126639   0.345   7.715   4.234
 4860SOL    HW226640   0.342   7.694   4.072
 4861SOL     OW26641   1.567   9.144   5.024
 4861SOL    HW126642   1.499   9.154   4.951
 4861SOL    HW226643   1.656   9.124   4.984
 4862SOL     OW26644   1.781   7.934   4.901
 4862SOL    HW126645   1.867   7.985   4.891
 4862SOL    HW226646   1.729   7.970   4.978
 4863SOL     OW26647   1.819   9.079   4.894
 4863SOL    HW126648   1.856   9.128   4.973
 4863SOL    HW226649   1.892   9.060   4.829
 4864SOL     OW26650   0.965   7.846   4.337
 4864SOL    HW126651   1.025   7.877   4.410
 4864SOL    HW226652   0.897   7.917   4.317
 4865SOL     OW26653   1.269   8.352   3.851
 4865SOL    HW126654   1.295   8.314   3.939
 4865SOL    HW226655   1.215   8.284   3.801
 4866SOL     OW26656   1.001   7.816   5.511
 4866SOL    HW126657   1.082   7.766   5.541
 4866SOL    HW226658   0.934   7.820   5.585
 4867SOL     OW26659   1.755   8.084   4.073
 4867SOL    HW126660   1.701   8.000   4.082
 4867SOL    HW226661   1.822   8.089   4.147
 4868SOL     OW26662   0.942   9.190   3.914
 4868SOL    HW126663   1.006   9.117   3.934
 4868SOL    HW226664   0.879   9.202   3.990
 4869SOL     OW26665   1.705   8.012   4.645
 4869SOL    HW126666   1.665   8.103   4.654
 4869SOL    HW226667   1.725   7.975   4.735
 4870SOL     OW26668   1.127   8.657   5.434
 4870SOL    HW126669   1.171   8.568   5.421
 4870SOL    HW226670   1.084   8.685   5.348
 4871SOL     OW26671   0.791   8.630   5.448
 4871SOL    HW126672   0.713   8.691   5.461
 4871SOL    HW226673   0.853   8.638   5.526
 4872SOL     OW26674   1.413   7.335   4.535
 4872SOL    HW126675   1.363   7.421   4.531
 4872SOL    HW226676   1.502   7.346   4.489
 4873SOL     OW26677   1.795   7.602   5.452
 4873SOL    HW126678   1.755   7.643   5.534
 4873SOL    HW226679   1.722   7.562   5.396
 4874SOL     OW26680   9.949   8.027   4.305
 4874SOL    HW126681   0.012   7.998   4.377
 4874SOL    HW226682   9.946   8.126   4.301
 4875SOL     OW26683   0.402   7.608   4.509
 4875SOL    HW126684   0.461   7.644   4.580
 4875SOL    HW226685   0.440   7.523   4.473
 4876SOL     OW26686   0.348   7.731   4.856
 4876SOL    HW126687   0.282   7.675   4.806
 4876SOL    HW226688   0.440   7.717   4.817
 4877SOL     OW26689   1.056   8.190   4.613
 4877SOL    HW126690   0.961   8.199   4.583
 4877SOL    HW226691   1.092   8.102   4.585
 4878SOL     OW26692   0.212   8.869   4.157
 4878SOL    HW126693   0.244   8.774   4.166
 4878SOL    HW226694   0.280   8.922   4.106
 4879SOL     OW26695   1.502   8.706   4.908
 4879SOL    HW126696   1.449   8.730   4.827
 4879SOL    HW226697   1.444   8.712   4.989
 4880SOL     OW26698   0.250   9.060   4.348
 4880SOL    HW126699   0.183   9.134   4.341
 4880SOL    HW226700   0.228   8.988   4.282
 4881SOL     OW26701   1.783   8.696   4.993
 4881SOL    HW126702   1.792   8.746   5.080
 4881SOL    HW226703   1.686   8.692   4.967
 4882SOL     OW26704   0.476   8.315   3.734
 4882SOL    HW126705   0.476   8.380   3.659
 4882SOL    HW226706   0.449   8.361   3.819
 4883SOL     OW26707   0.967   8.501   5.002
 4883SOL    HW126708   1.005   8.410   4.984
 4883SOL    HW226709   0.917   8.533   4.921
 4884SOL     OW26710   0.126   8.304   3.938
 4884SOL    HW126711   0.210   8.298   3.991
 4884SOL    HW226712   0.066   8.227   3.963
 4885SOL     OW26713   1.600   8.304   4.146
 4885SOL    HW126714   1.657   8.224   4.124
 4885SOL    HW226715   1.615   8.375   4.076
 4886SOL     OW26716   0.969   9.145   4.780
 4886SOL    HW126717   0.953   9.065   4.722
 4886SOL    HW226718   0.888   9.162   4.836
 4887SOL     OW26719   0.748   8.300   3.786
 4887SOL    HW126720   0.792   8.214   3.811
 4887SOL    HW226721   0.650   8.284   3.772
 4888SOL     OW26722   1.381   7.802   4.121
 4888SOL    HW126723   1.336   7.873   4.067
 4888SOL    HW226724   1.479   7.821   4.124
 4889SOL     OW26725   0.167   7.750   5.099
 4889SOL    HW126726   0.253   7.745   5.048
 4889SOL    HW226727   0.090   7.734   5.037
 4890SOL     OW26728   1.025   8.245   4.891
 4890SOL    HW126729   1.050   8.233   4.795
 4890SOL    HW226730   0.932   8.209   4.905
 4891SOL     OW26731   1.650   7.841   4.160
 4891SOL    HW126732   1.738   7.798   4.142
 4891SOL    HW226733   1.637   7.851   4.259
 4892SOL     OW26734   0.916   8.931   4.630
 4892SOL    HW126735   0.978   8.897   4.559
 4892SOL    HW226736   0.824   8.943   4.591
 4893SOL     OW26737   0.833   7.793   3.930
 4893SOL    HW126738   0.756   7.789   3.992
 4893SOL    HW226739   0.919   7.795   3.982
 4894SOL     OW26740   0.958   8.695   3.849
 4894SOL    HW126741   1.010   8.672   3.931
 4894SOL    HW226742   1.016   8.681   3.769
 4895SOL     OW26743   1.773   9.019   4.384
 4895SOL    HW126744   1.732   9.107   4.406
 4895SOL    HW226745   1.771   9.005   4.285
 4896SOL     OW26746   1.185   8.315   4.277
 4896SOL    HW126747   1.215   8.337   4.370
 4896SOL    HW226748   1.094   8.352   4.262
 4897SOL     OW26749   0.958   8.980   5.347
 4897SOL    HW126750   0.902   8.945   5.271
 4897SOL    HW226751   0.918   8.951   5.434
 4898SOL     OW26752   1.280   8.347   4.534
 4898SOL    HW126753   1.212   8.279   4.562
 4898SOL    HW226754   1.272   8.427   4.594
 4899SOL     OW26755   0.349   8.452   4.514
 4899SOL    HW126756   0.253   8.480   4.514
 4899SOL    HW226757   0.382   8.444   4.608
 4900SOL     OW26758   0.934   8.409   4.222
 4900SOL    HW126759   0.885   8.338   4.173
 4900SOL    HW226760   0.877   8.445   4.296
 4901SOL     OW26761   1.305   8.736   5.101
 4901SOL    HW126762   1.342   8.824   5.128
 4901SOL    HW226763   1.206   8.735   5.119
 4902SOL     OW26764   0.075   7.656   4.158
 4902SOL    HW126765   0.119   7.683   4.072
 4902SOL    HW226766   0.120   7.701   4.235
 4903SOL     OW26767   1.704   9.153   3.921
 4903SOL    HW126768   1.785   9.211   3.910
 4903SOL    HW226769   1.674   9.120   3.831
 4904SOL     OW26770   0.785   8.215   4.097
 4904SOL    HW126771   0.691   8.245   4.076
 4904SOL    HW226772   0.822   8.168   4.017
 4905SOL     OW26773   0.385   8.009   4.564
 4905SOL    HW126774   0.458   7.954   4.523
 4905SOL    HW226775   0.396   8.011   4.663
 4906SOL     OW26776   1.419   9.107   4.791
 4906SOL    HW126777   1.407   9.154   4.704
 4906SOL    HW226778   1.489   9.036   4.782
 4907SOL     OW26779   0.080   8.519   4.494
 4907SOL    HW126780   0.080   8.520   4.394
 4907SOL    HW226781   0.011   8.583   4.528
 4908SOL     OW26782   0.854   7.461   4.162
 4908SOL    HW126783   0.829   7.476   4.067
 4908SOL    HW226784   0.816   7.534   4.219
 4909SOL     OW26785   0.099   8.521   4.220
 4909SOL    HW126786   0.193   8.553   4.212
 4909SOL    HW226787   0.049   8.539   4.135
 4910SOL     OW26788   1.581   7.701   5.228
 4910SOL    HW126789   1.489   7.684   5.193
 4910SOL    HW226790   1.577   7.771   5.300
 4911SOL     OW26791   1.302   7.586   4.536
 4911SOL    HW126792   1.304   7.667   4.478
 4911SOL    HW226793   1.208   7.566   4.563
 4912SOL     OW26794   1.396   7.455   3.857
 4912SOL    HW126795   1.392   7.355   3.855
 4912SOL    HW226796   1.372   7.488   3.949
 4913SOL     OW26797   1.644   7.437   5.238
 4913SOL    HW126798   1.624   7.387   5.153
 4913SOL    HW226799   1.610   7.531   5.230
 4914SOL     OW26800   0.773   7.651   4.345
 4914SOL    HW126801   0.756   7.598   4.428
 4914SOL    HW226802   0.853   7.710   4.359
 4915SOL     OW26803   1.371   7.922   4.760
 4915SOL    HW126804   1.438   7.851   4.738
 4915SOL    HW226805   1.417   7.996   4.810
 4916SOL     OW26806   1.595   7.437   4.135
 4916SOL    HW126807   1.624   7.396   4.049
 4916SOL    HW226808   1.500   7.468   4.128
 4917SOL     OW26809   0.613   8.843   5.518
 4917SOL    HW126810   0.564   8.896   5.449
 4917SOL    HW226811   0.700   8.888   5.539
 4918SOL     OW26812   1.129   7.936   4.534
 4918SOL    HW126813   1.214   7.902   4.496
 4918SOL    HW226814   1.123   7.911   4.631
 4919SOL     OW26815   1.800   8.043   5.336
 4919SOL    HW126816   1.808   8.137   5.303
 4919SOL    HW226817   1.891   8.010   5.362
 4920SOL     OW26818   1.604   7.880   5.445
 4920SOL    HW126819   1.673   7.943   5.410
 4920SOL    HW226820   1.638   7.836   5.528
 4921SOL     OW26821   1.345   8.231   4.084
 4921SOL    HW126822   1.283   8.262   4.156
 4921SOL    HW226823   1.439   8.256   4.110
 4922SOL     OW26824   1.544   8.359   4.418
 4922SOL    HW126825   1.555   8.346   4.319
 4922SOL    HW226826   1.446   8.354   4.441
 4923SOL     OW26827   1.806   8.300   5.235
 4923SOL    HW126828   1.718   8.347   5.245
 4923SOL    HW226829   1.854   8.337   5.156
 4924SOL     OW26830   1.607   7.650   3.828
 4924SOL    HW126831   1.649   7.664   3.918
 4924SOL    HW226832   1.537   7.578   3.836
 4925SOL     OW26833   0.802   8.883   5.133
 4925SOL    HW126834   0.738   8.960   5.141
 4925SOL    HW226835   0.775   8.825   5.057
 4926SOL     OW26836   0.079   7.763   5.386
 4926SOL    HW126837   0.129   7.782   5.302
 4926SOL    HW226838   0.040   7.671   5.382
 4927SOL     OW26839   9.970   9.048   5.401
 4927SOL    HW126840   0.061   9.089   5.411
 4927SOL    HW226841   9.970   8.958   5.444
 4928SOL     OW26842   0.225   7.757   4.364
 4928SOL    HW126843   0.176   7.823   4.419
 4928SOL    HW226844   0.283   7.700   4.423
 4929SOL     OW26845   1.418   8.966   5.185
 4929SOL    HW126846   1.344   9.012   5.234
 4929SOL    HW226847   1.466   9.032   5.127
 4930SOL     OW26848   0.350   7.955   3.921
 4930SOL    HW126849   0.413   7.987   3.851
 4930SOL    HW226850   0.344   8.022   3.995
 4931SOL     OW26851   1.800   7.700   5.056
 4931SOL    HW126852   1.723   7.704   5.120
 4931SOL    HW226853   1.791   7.773   4.989
 4932SOL     OW26854   0.490   9.184   4.327
 4932SOL    HW126855   0.401   9.140   4.334
 4932SOL    HW226856   0.559   9.117   4.300
 4933SOL     OW26857   0.442   8.731   4.789
 4933SOL    HW126858   0.380   8.777   4.852
 4933SOL    HW226859   0.438   8.776   4.700
 4934SOL     OW26860   1.253   8.881   5.538
 4934SOL    HW126861   1.215   8.793   5.510
 4934SOL    HW226862   1.244   8.947   5.463
 4935SOL     OW26863   0.760   8.675   4.167
 4935SOL    HW126864   0.754   8.618   4.085
 4935SOL    HW226865   0.764   8.616   4.248
 4936SOL     OW26866   0.314   8.208   4.390
 4936SOL    HW126867   0.345   8.297   4.424
 4936SOL    HW226868   0.351   8.135   4.448
 4937SOL     OW26869   0.238   7.707   3.932
 4937SOL    HW126870   0.278   7.651   3.860
 4937SOL    HW226871   0.269   7.802   3.922
 4938SOL     OW26872   0.118   7.974   4.526
 4938SOL    HW126873   0.082   8.063   4.554
 4938SOL    HW226874   0.217   7.972   4.539
 4939SOL     OW26875   0.467   8.540   3.935
 4939SOL    HW126876   0.566   8.552   3.928
 4939SOL    HW226877   0.421   8.595   3.864
 4940SOL     OW26878   1.130   8.103   3.756
 4940SOL    HW126879   1.082   8.159   3.689
 4940SOL    HW226880   1.190   8.038   3.709
 4941SOL     OW26881   0.875   8.070   3.876
 4941SOL    HW126882   0.968   8.079   3.841
 4941SOL    HW226883   0.850   7.973   3.880
 4942SOL     OW26884   1.333   7.534   4.109
 4942SOL    HW126885   1.257   7.506   4.166
 4942SOL    HW226886   1.346   7.633   4.117
 4943SOL     OW26887   1.374   7.942   5.202
 4943SOL    HW126888   1.349   7.944   5.298
 4943SOL    HW226889   1.308   7.996   5.149
 4944SOL     OW26890   0.029   7.473   3.866
 4944SOL    HW126891   0.034   7.381   3.903
 4944SOL    HW226892   0.094   7.532   3.914
 4945SOL     OW26893   0.451   8.449   4.767
 4945SOL    HW126894   0.413   8.402   4.847
 4945SOL    HW226895   0.453   8.548   4.784
 4946SOL     OW26896   1.663   8.448   3.920
 4946SOL    HW126897   1.762   8.459   3.931
 4946SOL    HW226898   1.643   8.430   3.823
 4947SOL     OW26899   0.646   8.012   4.902
 4947SOL    HW126900   0.652   8.013   5.002
 4947SOL    HW226901   0.549   8.017   4.876
 4948SOL     OW26902   0.891   8.439   5.273
 4948SOL    HW126903   0.906   8.475   5.181
 4948SOL    HW226904   0.851   8.510   5.331
 4949SOL     OW26905   1.224   8.404   5.363
 4949SOL    HW126906   1.141   8.348   5.369
 4949SOL    HW226907   1.303   8.351   5.395
 4950SOL     OW26908   1.115   7.469   4.260
 4950SOL    HW126909   1.107   7.461   4.360
 4950SOL    HW226910   1.025   7.459   4.219
 4951SOL     OW26911   1.217   9.064   5.341
 4951SOL    HW126912   1.121   9.038   5.329
 4951SOL    HW226913   1.222   9.158   5.376
 4952SOL     OW26914   0.702   7.497   4.559
 4952SOL    HW126915   0.637   7.440   4.510
 4952SOL    HW226916   0.765   7.439   4.612
 4953SOL     OW26917   1.007   8.610   4.548
 4953SOL    HW126918   1.037   8.694   4.502
 4953SOL    HW226919   1.084   8.571   4.599
 4954SOL     OW26920   0.688   8.376   4.625
 4954SOL    HW126921   0.711   8.282   4.602
 4954SOL    HW226922   0.600   8.378   4.674
 4955SOL     OW26923   0.279   7.421   4.099
 4955SOL    HW126924   0.336   7.498   4.129
 4955SOL    HW226925   0.201   7.412   4.161
 4956SOL     OW26926   0.006   8.554   3.963
 4956SOL    HW126927   0.055   8.472   3.935
 4956SOL    HW226928   0.015   8.624   3.891
 4957SOL     OW26929   1.699   7.624   4.558
 4957SOL    HW126930   1.627   7.635   4.625
 4957SOL    HW226931   1.788   7.621   4.604
 4958SOL     OW26932   0.840   8.564   4.763
 4958SOL    HW126933   0.782   8.492   4.724
 4958SOL    HW226934   0.903   8.598   4.694
 4959SOL     OW26935   1.234   8.001   3.996
 4959SOL    HW126936   1.277   8.081   4.039
 4959SOL    HW226937   1.194   8.028   3.908
 4960SOL     OW26938   1.561   8.827   5.369
 4960SOL    HW126939   1.511   8.757   5.419
 4960SOL    HW226940   1.500   8.872   5.304
 4961SOL     OW26941   0.808   8.893   3.721
 4961SOL    HW126942   0.744   8.953   3.770
 4961SOL    HW226943   0.862   8.841   3.787
 4962SOL     OW26944   0.680   9.027   4.833
 4962SOL    HW126945   0.671   9.034   4.734
 4962SOL    HW226946   0.705   8.933   4.857
 4963SOL     OW26947   0.777   8.533   4.418
 4963SOL    HW126948   0.861   8.573   4.456
 4963SOL    HW226949   0.736   8.471   4.484
 4964SOL     OW26950   0.938   8.880   4.201
 4964SOL    HW126951   1.000   8.897   4.125
 4964SOL    HW226952   0.881   8.800   4.180
 4965SOL     OW26953   0.100   8.246   4.571
 4965SOL    HW126954   0.169   8.229   4.501
 4965SOL    HW226955   0.062   8.338   4.558
 4966SOL     OW26956   1.219   8.543   4.716
 4966SOL    HW126957   1.251   8.637   4.721
 4966SOL    HW226958   1.215   8.504   4.808
 4967SOL     OW26959   0.527   8.290   4.050
 4967SOL    HW126960   0.499   8.384   4.029
 4967SOL    HW226961   0.447   8.238   4.080
 4968SOL     OW26962   1.604   8.272   4.676
 4968SOL    HW126963   1.579   8.303   4.584
 4968SOL    HW226964   1.543   8.313   4.743
 4969SOL     OW26965   0.061   7.407   4.270
 4969SOL    HW126966   9.970   7.368   4.282
 4969SOL    HW226967   0.052   7.501   4.236
 4970SOL     OW26968   0.481   8.998   5.339
 4970SOL    HW126969   0.397   9.047   5.361
 4970SOL    HW226970   0.515   9.030   5.251
 4971SOL     OW26971   1.799   8.819   5.242
 4971SOL    HW126972   1.848   8.906   5.256
 4971SOL    HW226973   1.712   8.822   5.291
 4972SOL     OW26974   1.107   7.916   4.813
 4972SOL    HW126975   1.204   7.911   4.791
 4972SOL    HW226976   1.094   7.959   4.902
 4973SOL     OW26977   0.420   8.866   4.535
 4973SOL    HW126978   0.446   8.790   4.476
 4973SOL    HW226979   0.356   8.926   4.487
 4974SOL     OW26980   1.186   9.006   4.883
 4974SOL    HW126981   1.106   9.053   4.846
 4974SOL    HW226982   1.269   9.049   4.847
 4975SOL     OW26983   0.243   9.130   5.486
 4975SOL    HW126984   0.274   9.225   5.490
 4975SOL    HW226985   0.247   9.089   5.576
 4976SOL     OW26986   1.066   7.494   4.638
 4976SOL    HW126987   1.127   7.495   4.718
 4976SOL    HW226988   0.984   7.441   4.659
 4977SOL     OW26989   1.077   8.613   4.083
 4977SOL    HW126990   1.167   8.628   4.124
 4977SOL    HW226991   1.031   8.539   4.132
 4978SOL     OW26992   1.612   7.854   4.435
 4978SOL    HW126993   1.639   7.925   4.500
 4978SOL    HW226994   1.648   7.766   4.465
 4979SOL     OW26995   0.739   8.545   3.916
 4979SOL    HW126996   0.815   8.604   3.889
 4979SOL    HW226997   0.754   8.453   3.881
 4980SOL     OW26998   0.820   7.508   3.883
 4980SOL    HW126999   0.904   7.455   3.868
 4980SOL    HW227000   0.841   7.606   3.878
 4981SOL     OW27001   0.583   7.874   4.445
 4981SOL    HW127002   0.599   7.777   4.426
 4981SOL    HW227003   0.642   7.929   4.385
 4982SOL     OW27004   1.898   8.438   5.014
 4982SOL    HW127005   1.867   8.533   5.016
 4982SOL    HW227006   1.876   8.399   4.925
 4983SOL     OW27007   0.268   8.706   3.645
 4983SOL    HW127008   0.201   8.717   3.571
 4983SOL    HW227009   0.350   8.663   3.610
 4984SOL     OW27010   1.351   8.472   5.131
 4984SOL    HW127011   1.296   8.435   5.206
 4984SOL    HW227012   1.330   8.569   5.118
 4985SOL     OW27013   0.608   9.086   5.096
 4985SOL    HW127014   0.605   9.185   5.110
 4985SOL    HW227015   0.623   9.066   4.999
 4986SOL     OW27016   1.623   8.926   4.779
 4986SOL    HW127017   1.700   8.977   4.818
 4986SOL    HW227018   1.603   8.847   4.837
 4987SOL     OW27019   9.942   8.295   4.273
 4987SOL    HW127020   0.009   8.368   4.256
 4987SOL    HW227021   9.852   8.325   4.242
 4988SOL     OW27022   1.670   8.590   4.535
 4988SOL    HW127023   1.636   8.683   4.521
 4988SOL    HW227024   1.617   8.526   4.479
 4989SOL     OW27025   0.809   7.914   4.711
 4989SOL    HW127026   0.901   7.893   4.744
 4989SOL    HW227027   0.754   7.950   4.787
 4990SOL     OW27028   0.701   8.758   4.900
 4990SOL    HW127029   0.607   8.744   4.870
 4990SOL    HW227030   0.762   8.693   4.853
 4991SOL     OW27031   0.149   8.158   4.837
 4991SOL    HW127032   0.068   8.157   4.896
 4991SOL    HW227033   0.124   8.197   4.748
 4992SOL     OW27034   1.651   9.068   5.481
 4992SOL    HW127035   1.619   8.977   5.459
 4992SOL    HW227036   1.618   9.133   5.413
 4993SOL     OW27037   1.346   8.649   4.160
 4993SOL    HW127038   1.437   8.645   4.202
 4993SOL    HW227039   1.352   8.624   4.063
 4994SOL     OW27040   0.653   7.779   4.139
 4994SOL    HW127041   0.558   7.751   4.131
 4994SOL    HW227042   0.697   7.726   4.211
 4995SOL     OW27043   1.640   7.400   4.403
 4995SOL    HW127044   1.623   7.422   4.307
 4995SOL    HW227045   1.672   7.483   4.451
 4996SOL     OW27046   1.209   8.081   5.028
 4996SOL    HW127047   1.298   8.099   4.986
 4996SOL    HW227048   1.144   8.152   5.000
 4997SOL     OW27049   0.785   8.129   4.537
 4997SOL    HW127050   0.788   8.048   4.597
 4997SOL    HW227051   0.770   8.100   4.443
 4998SOL     OW27052   1.303   8.800   4.734
 4998SOL    HW127053   1.250   8.857   4.797
 4998SOL    HW227054   1.309   8.845   4.645
 4999SOL     OW27055   1.341   7.820   4.397
 4999SOL    HW127056   1.334   7.814   4.298
 4999SOL    HW227057   1.435   7.841   4.422
 5000SOL     OW27058   1.087   8.842   6.283
 5000SOL    HW127059   1.181   8.875   6.292
 5000SOL    HW227060   1.051   8.865   6.193
 5001SOL     OW27061   1.607   8.675   6.089
 5001SOL    HW127062   1.614   8.734   6.170
 5001SOL    HW227063   1.697   8.640   6.066
 5002SOL     OW27064   1.627   8.072   6.962
 5002SOL    HW127065   1.552   8.028   7.011
 5002SOL    HW227066   1.689   8.115   7.029
 5003SOL     OW27067   1.349   8.936   6.337
 5003SOL    HW127068   1.364   9.032   6.360
 5003SOL    HW227069   1.437   8.894   6.315
 5004SOL     OW27070   1.205   7.407   6.878
 5004SOL    HW127071   1.130   7.351   6.914
 5004SOL    HW227072   1.252   7.357   6.806
 5005SOL     OW27073   0.960   8.243   7.294
 5005SOL    HW127074   0.948   8.175   7.221
 5005SOL    HW227075   0.871   8.276   7.324
 5006SOL     OW27076   0.559   8.879   5.965
 5006SOL    HW127077   0.507   8.905   6.046
 5006SOL    HW227078   0.632   8.815   5.990
 5007SOL     OW27079   1.565   8.463   7.097
 5007SOL    HW127080   1.474   8.475   7.056
 5007SOL    HW227081   1.635   8.472   7.027
 5008SOL     OW27082   1.426   8.455   6.746
 5008SOL    HW127083   1.379   8.456   6.834
 5008SOL    HW227084   1.467   8.545   6.730
 5009SOL     OW27085   0.994   8.735   7.010
 5009SOL    HW127086   0.910   8.789   7.001
 5009SOL    HW227087   0.989   8.656   6.950
 5010SOL     OW27088   0.478   8.638   6.259
 5010SOL    HW127089   0.434   8.580   6.327
 5010SOL    HW227090   0.577   8.621   6.259
 5011SOL     OW27091   0.754   8.030   6.087
 5011SOL    HW127092   0.777   8.111   6.034
 5011SOL    HW227093   0.719   7.959   6.026
 5012SOL     OW27094   1.245   7.929   7.303
 5012SOL    HW127095   1.326   7.884   7.340
 5012SOL    HW227096   1.168   7.865   7.305
 5013SOL     OW27097   0.443   8.779   5.722
 5013SOL    HW127098   0.503   8.804   5.646
 5013SOL    HW227099   0.473   8.826   5.805
 5014SOL     OW27100   0.606   7.704   6.562
 5014SOL    HW127101   0.670   7.780   6.554
 5014SOL    HW227102   0.637   7.628   6.506
 5015SOL     OW27103   0.281   8.219   6.051
 5015SOL    HW127104   0.343   8.218   6.130
 5015SOL    HW227105   0.188   8.239   6.083
 5016SOL     OW27106   0.804   9.080   6.189
 5016SOL    HW127107   0.868   9.020   6.143
 5016SOL    HW227108   0.770   9.149   6.124
 5017SOL     OW27109   1.822   8.996   5.944
 5017SOL    HW127110   1.910   8.949   5.937
 5017SOL    HW227111   1.793   9.025   5.853
 5018SOL     OW27112   1.627   7.737   6.637
 5018SOL    HW127113   1.668   7.824   6.667
 5018SOL    HW227114   1.528   7.747   6.634
 5019SOL     OW27115   1.103   7.757   5.866
 5019SOL    HW127116   1.149   7.845   5.877
 5019SOL    HW227117   1.105   7.706   5.952
 5020SOL     OW27118   0.228   8.419   7.156
 5020SOL    HW127119   0.304   8.475   7.191
 5020SOL    HW227120   0.184   8.372   7.232
 5021SOL     OW27121   0.638   8.982   6.377
 5021SOL    HW127122   0.701   9.023   6.310
 5021SOL    HW227123   0.553   8.957   6.332
 5022SOL     OW27124   0.972   8.021   7.124
 5022SOL    HW127125   0.999   7.937   7.171
 5022SOL    HW227126   1.050   8.057   7.072
 5023SOL     OW27127   1.622   8.831   6.328
 5023SOL    HW127128   1.623   8.856   6.425
 5023SOL    HW227129   1.685   8.890   6.278
 5024SOL     OW27130   0.336   8.638   6.021
 5024SOL    HW127131   0.385   8.638   6.108
 5024SOL    HW227132   0.393   8.596   5.950
 5025SOL     OW27133   1.238   7.706   5.632
 5025SOL    HW127134   1.320   7.654   5.652
 5025SOL    HW227135   1.184   7.718   5.716
 5026SOL     OW27136   0.353   7.976   6.794
 5026SOL    HW127137   0.326   7.885   6.762
 5026SOL    HW227138   0.322   8.045   6.729
 5027SOL     OW27139   1.414   8.186   6.830
 5027SOL    HW127140   1.427   8.278   6.795
 5027SOL    HW227141   1.500   8.153   6.871
 5028SOL     OW27142   0.372   7.697   5.953
 5028SOL    HW127143   0.327   7.722   6.039
 5028SOL    HW227144   0.310   7.713   5.877
 5029SOL     OW27145   1.555   9.126   6.861
 5029SOL    HW127146   1.479   9.139   6.797
 5029SOL    HW227147   1.640   9.117   6.810
 5030SOL     OW27148   1.728   7.979   6.721
 5030SOL    HW127149   1.816   8.024   6.705
 5030SOL    HW227150   1.691   8.008   6.809
 5031SOL     OW27151   1.801   9.113   6.723
 5031SOL    HW127152   1.835   9.154   6.808
 5031SOL    HW227153   1.879   9.093   6.663
 5032SOL     OW27154   0.952   7.856   6.182
 5032SOL    HW127155   1.014   7.896   6.250
 5032SOL    HW227156   0.891   7.926   6.147
 5033SOL     OW27157   1.275   8.346   5.686
 5033SOL    HW127158   1.293   8.311   5.778
 5033SOL    HW227159   1.231   8.274   5.632
 5034SOL     OW27160   1.021   7.772   7.321
 5034SOL    HW127161   1.077   7.712   7.378
 5034SOL    HW227162   0.926   7.771   7.355
 5035SOL     OW27163   1.771   8.098   5.907
 5035SOL    HW127164   1.714   8.017   5.922
 5035SOL    HW227165   1.840   8.104   5.978
 5036SOL     OW27166   0.992   9.193   5.632
 5036SOL    HW127167   0.954   9.110   5.592
 5036SOL    HW227168   1.055   9.168   5.705
 5037SOL     OW27169   0.797   7.394   7.264
 5037SOL    HW127170   0.794   7.302   7.223
 5037SOL    HW227171   0.846   7.390   7.351
 5038SOL     OW27172   1.683   8.072   6.462
 5038SOL    HW127173   1.642   8.163   6.467
 5038SOL    HW227174   1.694   8.036   6.555
 5039SOL     OW27175   1.099   8.723   7.279
 5039SOL    HW127176   1.173   8.655   7.282
 5039SOL    HW227177   1.055   8.720   7.190
 5040SOL     OW27178   0.789   8.508   7.281
 5040SOL    HW127179   0.786   8.601   7.318
 5040SOL    HW227180   0.757   8.444   7.350
 5041SOL     OW27181   1.410   7.371   6.426
 5041SOL    HW127182   1.362   7.459   6.426
 5041SOL    HW227183   1.500   7.382   6.385
 5042SOL     OW27184   1.635   7.631   7.284
 5042SOL    HW127185   1.708   7.618   7.352
 5042SOL    HW227186   1.599   7.542   7.257
 5043SOL     OW27187   9.941   8.004   6.225
 5043SOL    HW127188   0.002   7.958   6.289
 5043SOL    HW227189   9.975   8.095   6.205
 5044SOL     OW27190   0.354   7.574   6.370
 5044SOL    HW127191   0.427   7.642   6.375
 5044SOL    HW227192   0.393   7.486   6.341
 5045SOL     OW27193   0.366   7.600   6.665
 5045SOL    HW127194   0.319   7.592   6.577
 5045SOL    HW227195   0.459   7.634   6.650
 5046SOL     OW27196   1.124   8.185   6.503
 5046SOL    HW127197   1.186   8.250   6.459
 5046SOL    HW227198   1.107   8.108   6.441
 5047SOL     OW27199   0.178   8.868   5.953
 5047SOL    HW127200   0.235   8.787   5.967
 5047SOL    HW227201   0.216   8.923   5.878
 5048SOL     OW27202   1.453   8.735   6.764
 5048SOL    HW127203   1.411   8.777   6.683
 5048SOL    HW227204   1.389   8.743   6.841
 5049SOL     OW27205   0.144   8.999   6.192
 5049SOL    HW127206   0.111   9.091   6.170
 5049SOL    HW227207   0.154   8.947   6.107
 5050SOL     OW27208   1.720   8.766   6.811
 5050SOL    HW127209   1.743   8.811   6.897
 5050SOL    HW227210   1.620   8.758   6.803
 5051SOL     OW27211   0.967   8.521   6.835
 5051SOL    HW127212   1.009   8.434   6.810
 5051SOL    HW227213   0.907   8.551   6.761
 5052SOL     OW27214   0.087   8.247   5.829
 5052SOL    HW127215   0.165   8.217   5.884
 5052SOL    HW227216   0.002   8.229   5.878
 5053SOL     OW27217   1.601   8.311   5.947
 5053SOL    HW127218   1.662   8.233   5.937
 5053SOL    HW227219   1.623   8.380   5.878
 5054SOL     OW27220   0.915   9.164   6.554
 5054SOL    HW127221   0.915   9.072   6.516
 5054SOL    HW227222   0.829   9.181   6.603
 5055SOL     OW27223   1.392   7.836   5.991
 5055SOL    HW127224   1.347   7.898   5.928
 5055SOL    HW227225   1.491   7.852   5.989
 5056SOL     OW27226   0.141   8.056   6.968
 5056SOL    HW127227   0.207   8.004   6.914
 5056SOL    HW227228   0.144   8.026   7.063
 5057SOL     OW27229   0.192   7.711   6.857
 5057SOL    HW127230   0.258   7.659   6.803
 5057SOL    HW227231   0.119   7.745   6.797
 5058SOL     OW27232   1.023   8.258   6.756
 5058SOL    HW127233   1.048   8.234   6.662
 5058SOL    HW227234   0.939   8.209   6.781
 5059SOL     OW27235   1.663   7.864   6.013
 5059SOL    HW127236   1.745   7.811   5.991
 5059SOL    HW227237   1.652   7.869   6.112
 5060SOL     OW27238   0.897   8.912   6.471
 5060SOL    HW127239   0.960   8.884   6.399
 5060SOL    HW227240   0.803   8.909   6.435
 5061SOL     OW27241   0.861   7.826   5.761
 5061SOL    HW127242   0.782   7.807   5.818
 5061SOL    HW227243   0.943   7.788   5.803
 5062SOL     OW27244   0.974   8.677   5.668
 5062SOL    HW127245   1.022   8.665   5.755
 5062SOL    HW227246   1.038   8.665   5.593
 5063SOL     OW27247   1.786   9.012   6.212
 5063SOL    HW127248   1.740   9.096   6.240
 5063SOL    HW227249   1.795   9.010   6.112
 5064SOL     OW27250   1.205   8.328   6.142
 5064SOL    HW127251   1.233   8.341   6.237
 5064SOL    HW227252   1.114   8.367   6.129
 5065SOL     OW27253   0.851   9.025   7.178
 5065SOL    HW127254   0.814   8.966   7.106
 5065SOL    HW227255   0.840   8.979   7.267
 5066SOL     OW27256   1.315   8.357   6.395
 5066SOL    HW127257   1.404   8.330   6.433
 5066SOL    HW227258   1.281   8.438   6.442
 5067SOL     OW27259   0.346   8.471   6.437
 5067SOL    HW127260   0.252   8.501   6.417
 5067SOL    HW227261   0.355   8.456   6.536
 5068SOL     OW27262   0.949   8.427   6.087
 5068SOL    HW127263   0.903   8.359   6.030
 5068SOL    HW227264   0.886   8.461   6.157
 5069SOL     OW27265   1.264   8.764   6.962
 5069SOL    HW127266   1.307   8.847   6.996
 5069SOL    HW227267   1.166   8.766   6.981
 5070SOL     OW27268   0.038   7.672   5.987
 5070SOL    HW127269   0.078   7.704   5.901
 5070SOL    HW227270   0.093   7.705   6.063
 5071SOL     OW27271   1.672   9.189   5.730
 5071SOL    HW127272   1.758   9.240   5.725
 5071SOL    HW227273   1.660   9.134   5.647
 5072SOL     OW27274   0.821   8.143   6.923
 5072SOL    HW127275   0.813   8.235   6.964
 5072SOL    HW227276   0.869   8.083   6.987
 5073SOL     OW27277   0.179   9.191   6.936
 5073SOL    HW127278   0.116   9.194   6.858
 5073SOL    HW227279   0.127   9.167   7.018
 5074SOL     OW27280   0.801   8.261   5.924
 5074SOL    HW127281   0.702   8.256   5.909
 5074SOL    HW227282   0.847   8.200   5.858
 5075SOL     OW27283   0.399   7.866   6.471
 5075SOL    HW127284   0.439   7.883   6.382
 5075SOL    HW227285   0.467   7.822   6.530
 5076SOL     OW27286   0.301   9.080   5.773
 5076SOL    HW127287   0.381   9.119   5.728
 5076SOL    HW227288   0.286   9.125   5.861
 5077SOL     OW27289   1.344   9.148   6.687
 5077SOL    HW127290   1.374   9.161   6.593
 5077SOL    HW227291   1.263   9.090   6.689
 5078SOL     OW27292   0.080   8.554   6.444
 5078SOL    HW127293   0.012   8.549   6.372
 5078SOL    HW227294   0.046   8.506   6.525
 5079SOL     OW27295   0.085   8.528   6.033
 5079SOL    HW127296   0.176   8.570   6.038
 5079SOL    HW227297   0.052   8.531   5.939
 5080SOL     OW27298   1.519   7.715   7.049
 5080SOL    HW127299   1.481   7.807   7.057
 5080SOL    HW227300   1.570   7.693   7.132
 5081SOL     OW27301   1.284   7.619   6.435
 5081SOL    HW127302   1.306   7.683   6.362
 5081SOL    HW227303   1.306   7.660   6.524
 5082SOL     OW27304   1.467   7.585   5.743
 5082SOL    HW127305   1.537   7.514   5.738
 5082SOL    HW227306   1.414   7.573   5.827
 5083SOL     OW27307   1.498   7.417   7.183
 5083SOL    HW127308   1.506   7.388   7.087
 5083SOL    HW227309   1.412   7.467   7.195
 5084SOL     OW27310   0.727   7.698   6.202
 5084SOL    HW127311   0.718   7.621   6.266
 5084SOL    HW227312   0.818   7.738   6.210
 5085SOL     OW27313   1.259   8.020   6.676
 5085SOL    HW127314   1.215   8.082   6.610
 5085SOL    HW227315   1.317   8.073   6.737
 5086SOL     OW27316   1.601   7.482   6.027
 5086SOL    HW127317   1.635   7.465   5.935
 5086SOL    HW227318   1.505   7.509   6.023
 5087SOL     OW27319   0.556   8.795   7.327
 5087SOL    HW127320   0.517   8.858   7.260
 5087SOL    HW227321   0.647   8.827   7.354
 5088SOL     OW27322   0.459   8.546   7.243
 5088SOL    HW127323   0.502   8.525   7.156
 5088SOL    HW227324   0.489   8.635   7.275
 5089SOL     OW27325   0.140   8.779   6.604
 5089SOL    HW127326   0.130   8.708   6.535
 5089SOL    HW227327   0.058   8.783   6.661
 5090SOL     OW27328   1.125   7.941   6.373
 5090SOL    HW127329   1.213   7.904   6.341
 5090SOL    HW227330   1.098   7.893   6.457
 5091SOL     OW27331   1.352   7.763   6.663
 5091SOL    HW127332   1.326   7.860   6.660
 5091SOL    HW227333   1.327   7.724   6.751
 5092SOL     OW27334   1.469   7.817   7.395
 5092SOL    HW127335   1.527   7.757   7.339
 5092SOL    HW227336   1.495   7.807   7.491
 5093SOL     OW27337   1.338   8.237   5.929
 5093SOL    HW127338   1.285   8.269   6.008
 5093SOL    HW227339   1.434   8.264   5.940
 5094SOL     OW27340   1.559   8.374   6.208
 5094SOL    HW127341   1.572   8.360   6.110
 5094SOL    HW227342   1.463   8.362   6.231
 5095SOL     OW27343   1.681   7.743   5.671
 5095SOL    HW127344   1.736   7.759   5.753
 5095SOL    HW227345   1.596   7.696   5.697
 5096SOL     OW27346   0.751   8.874   6.968
 5096SOL    HW127347   0.696   8.957   6.955
 5096SOL    HW227348   0.710   8.798   6.917
 5097SOL     OW27349   0.194   7.707   7.143
 5097SOL    HW127350   0.208   7.711   7.044
 5097SOL    HW227351   0.106   7.665   7.163
 5098SOL     OW27352   0.056   9.151   7.197
 5098SOL    HW127353   0.151   9.155   7.228
 5098SOL    HW227354   0.007   9.081   7.249
 5099SOL     OW27355   0.214   7.736   6.191
 5099SOL    HW127356   0.183   7.812   6.248
 5099SOL    HW227357   0.255   7.665   6.248
 5100SOL     OW27358   1.402   8.982   7.042
 5100SOL    HW127359   1.339   9.047   7.085
 5100SOL    HW227360   1.459   9.029   6.976
 5101SOL     OW27361   1.632   7.565   6.853
 5101SOL    HW127362   1.593   7.623   6.925
 5101SOL    HW227363   1.629   7.614   6.766
 5102SOL     OW27364   0.504   9.227   6.208
 5102SOL    HW127365   0.426   9.171   6.178
 5102SOL    HW227366   0.569   9.236   6.133
 5103SOL     OW27367   0.359   8.702   6.763
 5103SOL    HW127368   0.346   8.731   6.858
 5103SOL    HW227369   0.286   8.742   6.707
 5104SOL     OW27370   1.167   8.980   7.371
 5104SOL    HW127371   1.137   8.888   7.343
 5104SOL    HW227372   1.186   9.035   7.290
 5105SOL     OW27373   0.759   8.701   6.035
 5105SOL    HW127374   0.772   8.639   5.957
 5105SOL    HW227375   0.763   8.649   6.120
 5106SOL     OW27376   0.421   8.237   6.292
 5106SOL    HW127377   0.418   8.325   6.340
 5106SOL    HW227378   0.508   8.191   6.313
 5107SOL     OW27379   0.176   7.709   5.744
 5107SOL    HW127380   0.145   7.617   5.721
 5107SOL    HW227381   0.177   7.765   5.661
 5108SOL     OW27382   0.146   7.922   6.404
 5108SOL    HW127383   0.142   8.022   6.403
 5108SOL    HW227384   0.236   7.892   6.435
 5109SOL     OW27385   0.509   8.536   5.827
 5109SOL    HW127386   0.608   8.530   5.822
 5109SOL    HW227387   0.478   8.615   5.774
 5110SOL     OW27388   1.161   8.105   5.583
 5110SOL    HW127389   1.103   8.150   5.516
 5110SOL    HW227390   1.222   8.041   5.537
 5111SOL     OW27391   0.939   8.089   5.767
 5111SOL    HW127392   1.014   8.104   5.702
 5111SOL    HW227393   0.905   7.995   5.758
 5112SOL     OW27394   1.344   7.572   5.992
 5112SOL    HW127395   1.255   7.554   6.035
 5112SOL    HW227396   1.363   7.670   5.994
 5113SOL     OW27397   1.396   7.958   7.065
 5113SOL    HW127398   1.356   7.977   7.155
 5113SOL    HW227399   1.327   7.972   6.994
 5114SOL     OW27400   0.097   7.447   5.707
 5114SOL    HW127401   0.040   7.366   5.698
 5114SOL    HW227402   0.169   7.431   5.775
 5115SOL     OW27403   0.313   8.438   6.713
 5115SOL    HW127404   0.313   8.385   6.797
 5115SOL    HW227405   0.335   8.533   6.733
 5116SOL     OW27406   1.687   8.459   5.737
 5116SOL    HW127407   1.784   8.479   5.747
 5116SOL    HW227408   1.669   8.426   5.645
 5117SOL     OW27409   0.635   8.019   6.757
 5117SOL    HW127410   0.687   8.069   6.826
 5117SOL    HW227411   0.540   8.011   6.785
 5118SOL     OW27412   0.837   8.391   7.041
 5118SOL    HW127413   0.897   8.442   6.980
 5118SOL    HW227414   0.836   8.435   7.131
 5119SOL     OW27415   1.159   8.401   7.184
 5119SOL    HW127416   1.075   8.361   7.222
 5119SOL    HW227417   1.237   8.342   7.206
 5120SOL     OW27418   1.091   7.629   6.116
 5120SOL    HW127419   1.042   7.713   6.136
 5120SOL    HW227420   1.077   7.563   6.189
 5121SOL     OW27421   1.221   9.145   7.161
 5121SOL    HW127422   1.145   9.171   7.102
 5121SOL    HW227423   1.262   9.227   7.201
 5122SOL     OW27424   0.678   7.503   6.387
 5122SOL    HW127425   0.608   7.438   6.355
 5122SOL    HW227426   0.751   7.453   6.433
 5123SOL     OW27427   0.392   9.148   6.774
 5123SOL    HW127428   0.354   9.100   6.696
 5123SOL    HW227429   0.322   9.160   6.844
 5124SOL     OW27430   0.997   8.616   6.409
 5124SOL    HW127431   1.032   8.696   6.359
 5124SOL    HW227432   1.071   8.576   6.463
 5125SOL     OW27433   0.674   8.366   6.471
 5125SOL    HW127434   0.693   8.280   6.425
 5125SOL    HW227435   0.606   8.351   6.544
 5126SOL     OW27436   0.023   8.439   6.693
 5126SOL    HW127437   0.121   8.438   6.711
 5126SOL    HW227438   9.980   8.360   6.738
 5127SOL     OW27439   0.290   7.419   5.904
 5127SOL    HW127440   0.337   7.504   5.931
 5127SOL    HW227441   0.213   7.403   5.965
 5128SOL     OW27442   0.618   8.028   7.226
 5128SOL    HW127443   0.577   8.093   7.161
 5128SOL    HW227444   0.718   8.031   7.217
 5129SOL     OW27445   0.041   8.503   5.745
 5129SOL    HW127446   0.073   8.410   5.760
 5129SOL    HW227447   0.113   8.558   5.704
 5130SOL     OW27448   1.754   7.643   6.409
 5130SOL    HW127449   1.713   7.667   6.498
 5130SOL    HW227450   1.852   7.628   6.421
 5131SOL     OW27451   0.803   8.575   6.614
 5131SOL    HW127452   0.762   8.497   6.567
 5131SOL    HW227453   0.868   8.620   6.553
 5132SOL     OW27454   1.249   8.000   5.830
 5132SOL    HW127455   1.277   8.085   5.876
 5132SOL    HW227456   1.213   8.022   5.740
 5133SOL     OW27457   1.548   8.842   7.224
 5133SOL    HW127458   1.506   8.754   7.248
 5133SOL    HW227459   1.490   8.890   7.158
 5134SOL     OW27460   0.279   8.287   6.929
 5134SOL    HW127461   0.225   8.202   6.934
 5134SOL    HW227462   0.265   8.339   7.013
 5135SOL     OW27463   0.861   8.936   5.609
 5135SOL    HW127464   0.808   8.976   5.685
 5135SOL    HW227465   0.908   8.854   5.641
 5136SOL     OW27466   0.647   9.124   6.627
 5136SOL    HW127467   0.635   9.067   6.546
 5136SOL    HW227468   0.560   9.135   6.674
 5137SOL     OW27469   0.767   8.546   6.276
 5137SOL    HW127470   0.850   8.580   6.320
 5137SOL    HW227471   0.725   8.477   6.334
 5138SOL     OW27472   0.960   8.903   6.048
 5138SOL    HW127473   1.012   8.926   5.966
 5138SOL    HW227474   0.898   8.826   6.029
 5139SOL     OW27475   0.161   8.193   6.371
 5139SOL    HW127476   0.256   8.203   6.341
 5139SOL    HW227477   0.102   8.240   6.305
 5140SOL     OW27478   0.092   8.290   7.350
 5140SOL    HW127479   0.021   8.221   7.337
 5140SOL    HW227480   0.107   8.303   7.448
 5141SOL     OW27481   0.993   9.188   7.005
 5141SOL    HW127482   0.951   9.123   7.068
 5141SOL    HW227483   0.923   9.249   6.968
 5142SOL     OW27484   1.226   8.555   6.559
 5142SOL    HW127485   1.239   8.654   6.564
 5142SOL    HW227486   1.270   8.512   6.638
 5143SOL     OW27487   0.579   7.763   7.297
 5143SOL    HW127488   0.635   7.709   7.234
 5143SOL    HW227489   0.588   7.860   7.274
 5144SOL     OW27490   0.526   8.275   5.915
 5144SOL    HW127491   0.511   8.366   5.877
 5144SOL    HW227492   0.440   8.240   5.952
 5145SOL     OW27493   1.560   8.332   6.526
 5145SOL    HW127494   1.609   8.407   6.482
 5145SOL    HW227495   1.524   8.363   6.614
 5146SOL     OW27496   1.286   7.664   6.908
 5146SOL    HW127497   1.371   7.667   6.960
 5146SOL    HW227498   1.256   7.569   6.898
 5147SOL     OW27499   0.053   7.405   6.040
 5147SOL    HW127500   9.991   7.368   6.109
 5147SOL    HW227501   0.031   7.501   6.022
 5148SOL     OW27502   1.260   7.549   7.222
 5148SOL    HW127503   1.240   7.589   7.312
 5148SOL    HW227504   1.230   7.613   7.151
 5149SOL     OW27505   0.455   8.982   7.157
 5149SOL    HW127506   0.399   9.047   7.208
 5149SOL    HW227507   0.510   9.031   7.090
 5150SOL     OW27508   1.777   8.861   7.068
 5150SOL    HW127509   1.825   8.945   7.095
 5150SOL    HW227510   1.697   8.848   7.127
 5151SOL     OW27511   1.035   7.857   6.625
 5151SOL    HW127512   1.107   7.915   6.664
 5151SOL    HW227513   1.040   7.767   6.667
 5152SOL     OW27514   0.417   8.908   6.221
 5152SOL    HW127515   0.427   8.810   6.239
 5152SOL    HW227516   0.320   8.931   6.218
 5153SOL     OW27517   1.107   9.014   6.700
 5153SOL    HW127518   1.057   8.970   6.775
 5153SOL    HW227519   1.044   9.073   6.649
 5154SOL     OW27520   0.307   9.158   7.308
 5154SOL    HW127521   0.337   9.254   7.308
 5154SOL    HW227522   0.290   9.129   7.403
 5155SOL     OW27523   0.091   8.751   7.171
 5155SOL    HW127524   0.031   8.676   7.200
 5155SOL    HW227525   0.045   8.807   7.103
 5156SOL     OW27526   0.265   9.022   6.563
 5156SOL    HW127527   0.223   8.932   6.578
 5156SOL    HW227528   0.290   9.032   6.467
 5157SOL     OW27529   1.050   7.484   6.348
 5157SOL    HW127530   1.133   7.524   6.389
 5157SOL    HW227531   0.989   7.453   6.421
 5158SOL     OW27532   1.077   8.624   5.922
 5158SOL    HW127533   1.169   8.644   5.955
 5158SOL    HW227534   1.035   8.554   5.979
 5159SOL     OW27535   1.631   7.864   6.288
 5159SOL    HW127536   1.651   7.944   6.344
 5159SOL    HW227537   1.680   7.785   6.325
 5160SOL     OW27538   0.781   8.528   5.821
 5160SOL    HW127539   0.849   8.568   5.759
 5160SOL    HW227540   0.808   8.434   5.843
 5161SOL     OW27541   0.522   7.876   6.234
 5161SOL    HW127542   0.594   7.808   6.224
 5161SOL    HW227543   0.532   7.946   6.163
 5162SOL     OW27544   0.586   8.484   7.009
 5162SOL    HW127545   0.679   8.450   7.021
 5162SOL    HW227546   0.586   8.557   6.941
 5163SOL     OW27547   1.753   8.504   6.892
 5163SOL    HW127548   1.739   8.595   6.853
 5163SOL    HW227549   1.815   8.452   6.833
 5164SOL     OW27550   0.212   8.678   5.611
 5164SOL    HW127551   0.242   8.648   5.520
 5164SOL    HW227552   0.289   8.721   5.659
 5165SOL     OW27553   0.682   9.051   5.790
 5165SOL    HW127554   0.611   9.100   5.739
 5165SOL    HW227555   0.639   8.990   5.856
 5166SOL     OW27556   1.313   8.499   6.986
 5166SOL    HW127557   1.251   8.459   7.053
 5166SOL    HW227558   1.294   8.597   6.978
 5167SOL     OW27559   0.598   9.107   6.956
 5167SOL    HW127560   0.658   9.187   6.951
 5167SOL    HW227561   0.526   9.115   6.888
 5168SOL     OW27562   0.169   7.971   7.233
 5168SOL    HW127563   0.193   7.876   7.211
 5168SOL    HW227564   0.240   8.012   7.289
 5169SOL     OW27565   1.652   8.918   6.582
 5169SOL    HW127566   1.690   9.007   6.607
 5169SOL    HW227567   1.674   8.851   6.654
 5170SOL     OW27568   0.024   8.289   6.146
 5170SOL    HW127569   0.050   8.382   6.121
 5170SOL    HW227570   9.944   8.261   6.093
 5171SOL     OW27571   0.519   8.215   7.055
 5171SOL    HW127572   0.436   8.203   7.001
 5171SOL    HW227573   0.550   8.310   7.048
 5172SOL     OW27574   1.659   8.556   6.388
 5172SOL    HW127575   1.643   8.653   6.372
 5172SOL    HW227576   1.624   8.503   6.311
 5173SOL     OW27577   0.771   7.929   6.542
 5173SOL    HW127578   0.866   7.910   6.567
 5173SOL    HW227579   0.723   7.966   6.622
 5174SOL     OW27580   0.632   8.677   6.813
 5174SOL    HW127581   0.539   8.694   6.781
 5174SOL    HW227582   0.689   8.649   6.735
 5175SOL     OW27583   0.259   8.172   6.629
 5175SOL    HW127584   0.280   8.265   6.660
 5175SOL    HW227585   0.211   8.176   6.542
 5176SOL     OW27586   0.324   8.781   7.020
 5176SOL    HW127587   0.375   8.854   7.065
 5176SOL    HW227588   0.242   8.759   7.073
 5177SOL     OW27589   1.636   9.088   7.338
 5177SOL    HW127590   1.606   8.994   7.322
 5177SOL    HW227591   1.607   9.146   7.262
 5178SOL     OW27592   1.345   8.663   5.991
 5178SOL    HW127593   1.433   8.665   6.037
 5178SOL    HW227594   1.356   8.629   5.898
 5179SOL     OW27595   0.652   7.797   5.960
 5179SOL    HW127596   0.559   7.768   5.938
 5179SOL    HW227597   0.685   7.747   6.040
 5180SOL     OW27598   1.645   7.421   6.285
 5180SOL    HW127599   1.619   7.450   6.193
 5180SOL    HW227600   1.687   7.498   6.334
 5181SOL     OW27601   1.165   8.133   6.962
 5181SOL    HW127602   1.260   8.164   6.955
 5181SOL    HW227603   1.110   8.179   6.892
 5182SOL     OW27604   0.685   8.121   6.347
 5182SOL    HW127605   0.709   8.051   6.414
 5182SOL    HW227606   0.712   8.091   6.256
 5183SOL     OW27607   1.269   8.824   6.574
 5183SOL    HW127608   1.203   8.885   6.617
 5183SOL    HW227609   1.298   8.862   6.486
 5184SOL     OW27610   1.357   7.826   6.267
 5184SOL    HW127611   1.346   7.829   6.168
 5184SOL    HW227612   1.453   7.844   6.290
 5185SOL     OW27613   1.081   8.875   8.144
 5185SOL    HW127614   1.176   8.904   8.145
 5185SOL    HW227615   1.043   8.883   8.052
 5186SOL     OW27616   1.666   7.938   8.808
 5186SOL    HW127617   1.566   7.948   8.814
 5186SOL    HW227618   1.707   7.960   8.897
 5187SOL     OW27619   0.354   7.629   7.358
 5187SOL    HW127620   0.292   7.651   7.283
 5187SOL    HW227621   0.440   7.680   7.347
 5188SOL     OW27622   1.347   8.974   8.192
 5188SOL    HW127623   1.344   9.066   8.231
 5188SOL    HW227624   1.429   8.965   8.135
 5189SOL     OW27625   1.223   7.477   8.728
 5189SOL    HW127626   1.146   7.430   8.770
 5189SOL    HW227627   1.262   7.420   8.656
 5190SOL     OW27628   0.973   8.271   9.100
 5190SOL    HW127629   0.912   8.291   9.023
 5190SOL    HW227630   0.944   8.324   9.180
 5191SOL     OW27631   0.540   8.863   7.794
 5191SOL    HW127632   0.494   8.892   7.878
 5191SOL    HW227633   0.615   8.801   7.816
 5192SOL     OW27634   0.549   7.441   7.530
 5192SOL    HW127635   0.643   7.466   7.554
 5192SOL    HW227636   0.513   7.506   7.463
 5193SOL     OW27637   1.562   8.491   8.951
 5193SOL    HW127638   1.496   8.451   8.887
 5193SOL    HW227639   1.542   8.588   8.963
 5194SOL     OW27640   0.964   8.715   8.859
 5194SOL    HW127641   0.881   8.770   8.849
 5194SOL    HW227642   0.964   8.642   8.791
 5195SOL     OW27643   0.454   8.602   8.087
 5195SOL    HW127644   0.405   8.544   8.153
 5195SOL    HW227645   0.552   8.583   8.092
 5196SOL     OW27646   0.764   8.008   7.950
 5196SOL    HW127647   0.774   8.093   7.897
 5196SOL    HW227648   0.733   7.935   7.890
 5197SOL     OW27649   1.278   7.917   9.105
 5197SOL    HW127650   1.372   7.890   9.127
 5197SOL    HW227651   1.216   7.841   9.125
 5198SOL     OW27652   0.411   8.772   7.559
 5198SOL    HW127653   0.467   8.789   7.479
 5198SOL    HW227654   0.451   8.817   7.639
 5199SOL     OW27655   0.619   7.685   8.386
 5199SOL    HW127656   0.678   7.765   8.384
 5199SOL    HW227657   0.661   7.611   8.334
 5200SOL     OW27658   0.267   8.163   7.847
 5200SOL    HW127659   0.306   8.164   7.939
 5200SOL    HW227660   0.168   8.172   7.853
 5201SOL     OW27661   0.779   9.069   8.016
 5201SOL    HW127662   0.843   9.002   7.978
 5201SOL    HW227663   0.770   9.146   7.953
 5202SOL     OW27664   1.793   9.064   7.844
 5202SOL    HW127665   1.871   9.005   7.823
 5202SOL    HW227666   1.747   9.091   7.760
 5203SOL     OW27667   1.679   7.680   8.513
 5203SOL    HW127668   1.732   7.762   8.535
 5203SOL    HW227669   1.582   7.702   8.511
 5204SOL     OW27670   1.093   7.747   7.713
 5204SOL    HW127671   1.142   7.834   7.724
 5204SOL    HW227672   1.098   7.695   7.798
 5205SOL     OW27673   0.254   8.409   8.947
 5205SOL    HW127674   0.327   8.460   8.991
 5205SOL    HW227675   0.190   8.376   9.016
 5206SOL     OW27676   0.387   8.075   7.388
 5206SOL    HW127677   0.393   8.173   7.402
 5206SOL    HW227678   0.468   8.044   7.337
 5207SOL     OW27679   0.602   9.000   8.209
 5207SOL    HW127680   0.675   9.026   8.146
 5207SOL    HW227681   0.537   8.941   8.161
 5208SOL     OW27682   0.936   7.972   8.962
 5208SOL    HW127683   0.975   7.903   9.023
 5208SOL    HW227684   1.009   8.017   8.912
 5209SOL     OW27685   0.299   8.595   7.856
 5209SOL    HW127686   0.350   8.597   7.942
 5209SOL    HW227687   0.359   8.562   7.783
 5210SOL     OW27688   1.198   7.635   7.482
 5210SOL    HW127689   1.281   7.586   7.507
 5210SOL    HW227690   1.157   7.674   7.565
 5211SOL     OW27691   0.400   7.897   8.576
 5211SOL    HW127692   0.394   7.797   8.568
 5211SOL    HW227693   0.311   7.937   8.553
 5212SOL     OW27694   1.435   8.181   8.685
 5212SOL    HW127695   1.407   8.270   8.720
 5212SOL    HW227696   1.432   8.114   8.760
 5213SOL     OW27697   0.422   7.697   7.812
 5213SOL    HW127698   0.371   7.723   7.894
 5213SOL    HW227699   0.361   7.699   7.733
 5214SOL     OW27700   1.816   7.905   8.582
 5214SOL    HW127701   1.898   7.962   8.582
 5214SOL    HW227702   1.764   7.921   8.666
 5215SOL     OW27703   2.025   9.356   8.495
 5215SOL    HW127704   2.004   9.317   8.585
 5215SOL    HW227705   2.052   9.284   8.432
 5216SOL     OW27706   0.980   7.856   8.044
 5216SOL    HW127707   1.039   7.899   8.113
 5216SOL    HW227708   0.914   7.924   8.010
 5217SOL     OW27709   1.233   8.341   7.576
 5217SOL    HW127710   1.258   8.306   7.666
 5217SOL    HW227711   1.189   8.268   7.523
 5218SOL     OW27712   1.087   7.722   9.167
 5218SOL    HW127713   1.103   7.715   9.266
 5218SOL    HW227714   1.004   7.672   9.143
 5219SOL     OW27715   1.701   7.976   7.681
 5219SOL    HW127716   1.664   7.892   7.640
 5219SOL    HW227717   1.765   7.952   7.754
 5220SOL     OW27718   0.999   9.151   7.530
 5220SOL    HW127719   1.039   9.100   7.454
 5220SOL    HW227720   1.013   9.099   7.615
 5221SOL     OW27721   0.787   7.416   9.082
 5221SOL    HW127722   0.812   7.320   9.065
 5221SOL    HW227723   0.797   7.436   9.179
 5222SOL     OW27724   1.736   7.986   8.332
 5222SOL    HW127725   1.681   8.067   8.355
 5222SOL    HW227726   1.769   7.944   8.416
 5223SOL     OW27727   1.113   8.679   9.092
 5223SOL    HW127728   1.155   8.589   9.080
 5223SOL    HW227729   1.046   8.694   9.020
 5224SOL     OW27730   0.798   8.553   9.118
 5224SOL    HW127731   0.731   8.622   9.142
 5224SOL    HW227732   0.845   8.522   9.201
 5225SOL     OW27733   1.387   7.359   8.274
 5225SOL    HW127734   1.343   7.448   8.289
 5225SOL    HW227735   1.471   7.371   8.222
 5226SOL     OW27736   1.780   7.586   9.204
 5226SOL    HW127737   1.712   7.635   9.258
 5226SOL    HW227738   1.829   7.521   9.262
 5227SOL     OW27739   9.953   7.974   8.016
 5227SOL    HW127740   0.026   7.950   8.081
 5227SOL    HW227741   9.975   8.061   7.972
 5228SOL     OW27742   0.415   7.603   8.206
 5228SOL    HW127743   0.475   7.640   8.278
 5228SOL    HW227744   0.437   7.507   8.191
 5229SOL     OW27745   0.427   7.612   8.572
 5229SOL    HW127746   0.417   7.512   8.573
 5229SOL    HW227747   0.501   7.637   8.509
 5230SOL     OW27748   1.032   8.180   8.336
 5230SOL    HW127749   0.942   8.176   8.292
 5230SOL    HW227750   1.091   8.109   8.297
 5231SOL     OW27751   0.103   8.769   7.772
 5231SOL    HW127752   0.167   8.700   7.806
 5231SOL    HW227753   0.120   8.783   7.674
 5232SOL     OW27754   1.328   8.646   8.640
 5232SOL    HW127755   1.341   8.694   8.553
 5232SOL    HW227756   1.286   8.708   8.706
 5233SOL     OW27757   0.147   8.948   7.978
 5233SOL    HW127758   0.133   9.040   7.941
 5233SOL    HW227759   0.131   8.880   7.906
 5234SOL     OW27760   0.455   8.343   7.428
 5234SOL    HW127761   0.453   8.407   7.351
 5234SOL    HW227762   0.440   8.393   7.513
 5235SOL     OW27763   0.952   8.505   8.675
 5235SOL    HW127764   0.997   8.419   8.653
 5235SOL    HW227765   0.899   8.536   8.597
 5236SOL     OW27766   0.108   8.321   7.625
 5236SOL    HW127767   0.168   8.325   7.705
 5236SOL    HW227768   0.059   8.234   7.624
 5237SOL     OW27769   1.584   8.207   7.773
 5237SOL    HW127770   1.624   8.123   7.736
 5237SOL    HW227771   1.606   8.284   7.713
 5238SOL     OW27772   0.863   9.213   8.414
 5238SOL    HW127773   0.910   9.126   8.395
 5238SOL    HW227774   0.779   9.194   8.465
 5239SOL     OW27775   0.727   8.293   7.451
 5239SOL    HW127776   0.758   8.206   7.488
 5239SOL    HW227777   0.627   8.292   7.442
 5240SOL     OW27778   1.371   7.814   7.853
 5240SOL    HW127779   1.335   7.886   7.794
 5240SOL    HW227780   1.471   7.817   7.853
 5241SOL     OW27781   0.386   8.024   8.822
 5241SOL    HW127782   0.393   7.956   8.749
 5241SOL    HW227783   0.344   7.982   8.902
 5242SOL     OW27784   0.221   7.635   8.759
 5242SOL    HW127785   0.298   7.634   8.695
 5242SOL    HW227786   0.158   7.561   8.737
 5243SOL     OW27787   1.022   8.247   8.604
 5243SOL    HW127788   1.032   8.226   8.507
 5243SOL    HW227789   0.942   8.201   8.641
 5244SOL     OW27790   1.639   7.755   7.893
 5244SOL    HW127791   1.726   7.710   7.874
 5244SOL    HW227792   1.633   7.779   7.990
 5245SOL     OW27793   0.942   8.956   8.365
 5245SOL    HW127794   0.996   8.930   8.285
 5245SOL    HW227795   0.847   8.928   8.352
 5246SOL     OW27796   0.852   7.785   7.596
 5246SOL    HW127797   0.781   7.787   7.666
 5246SOL    HW227798   0.941   7.774   7.639
 5247SOL     OW27799   0.941   8.685   7.508
 5247SOL    HW127800   0.990   8.666   7.593
 5247SOL    HW227801   1.007   8.689   7.433
 5248SOL     OW27802   1.586   9.025   8.049
 5248SOL    HW127803   1.592   9.116   8.089
 5248SOL    HW227804   1.657   9.014   7.980
 5249SOL     OW27805   1.196   8.402   7.999
 5249SOL    HW127806   1.199   8.406   8.099
 5249SOL    HW227807   1.100   8.400   7.969
 5250SOL     OW27808   0.823   9.024   9.019
 5250SOL    HW127809   0.790   8.958   8.951
 5250SOL    HW227810   0.820   8.982   9.110
 5251SOL     OW27811   0.301   8.440   8.252
 5251SOL    HW127812   0.206   8.451   8.225
 5251SOL    HW227813   0.307   8.432   8.352
 5252SOL     OW27814   0.929   8.409   7.915
 5252SOL    HW127815   0.883   8.338   7.861
 5252SOL    HW227816   0.865   8.443   7.984
 5253SOL     OW27817   1.208   8.826   8.807
 5253SOL    HW127818   1.190   8.891   8.733
 5253SOL    HW227819   1.121   8.789   8.840
 5254SOL     OW27820   0.133   7.568   7.853
 5254SOL    HW127821   0.153   7.607   7.763
 5254SOL    HW227822   0.163   7.632   7.924
 5255SOL     OW27823   1.683   9.174   7.612
 5255SOL    HW127824   1.770   9.221   7.600
 5255SOL    HW227825   1.652   9.137   7.524
 5256SOL     OW27826   0.810   8.141   8.763
 5256SOL    HW127827   0.795   8.226   8.813
 5256SOL    HW227828   0.847   8.072   8.826
 5257SOL     OW27829   0.145   9.137   8.789
 5257SOL    HW127830   0.076   9.172   8.725
 5257SOL    HW227831   0.112   9.148   8.882
 5258SOL     OW27832   0.779   8.218   7.777
 5258SOL    HW127833   0.681   8.238   7.769
 5258SOL    HW227834   0.809   8.167   7.697
 5259SOL     OW27835   0.396   7.982   8.284
 5259SOL    HW127836   0.462   7.938   8.223
 5259SOL    HW227837   0.424   7.966   8.379
 5260SOL     OW27838   0.280   9.154   7.585
 5260SOL    HW127839   0.372   9.193   7.580
 5260SOL    HW227840   0.260   9.128   7.680
 5261SOL     OW27841   1.288   9.195   8.551
 5261SOL    HW127842   1.327   9.209   8.460
 5261SOL    HW227843   1.361   9.180   8.617
 5262SOL     OW27844   0.761   7.435   7.853
 5262SOL    HW127845   0.776   7.458   7.756
 5262SOL    HW227846   0.774   7.516   7.909
 5263SOL     OW27847   1.609   7.643   8.984
 5263SOL    HW127848   1.572   7.728   9.022
 5263SOL    HW227849   1.676   7.605   9.048
 5264SOL     OW27850   1.295   7.616   8.321
 5264SOL    HW127851   1.313   7.678   8.244
 5264SOL    HW227852   1.336   7.654   8.404
 5265SOL     OW27853   1.414   7.495   7.583
 5265SOL    HW127854   1.445   7.402   7.567
 5265SOL    HW227855   1.376   7.503   7.675
 5266SOL     OW27856   1.588   7.367   8.954
 5266SOL    HW127857   1.574   7.337   8.859
 5266SOL    HW227858   1.575   7.466   8.959
 5267SOL     OW27859   0.778   7.661   8.027
 5267SOL    HW127860   0.758   7.595   8.100
 5267SOL    HW227861   0.859   7.713   8.051
 5268SOL     OW27862   1.313   8.014   8.504
 5268SOL    HW127863   1.319   8.053   8.412
 5268SOL    HW227864   1.356   8.076   8.570
 5269SOL     OW27865   1.590   7.430   7.848
 5269SOL    HW127866   1.613   7.388   7.761
 5269SOL    HW227867   1.497   7.467   7.845
 5270SOL     OW27868   0.585   8.766   9.178
 5270SOL    HW127869   0.539   8.830   9.116
 5270SOL    HW227870   0.667   8.811   9.216
 5271SOL     OW27871   0.467   8.522   9.097
 5271SOL    HW127872   0.511   8.501   9.010
 5271SOL    HW227873   0.500   8.610   9.130
 5272SOL     OW27874   0.146   8.824   8.534
 5272SOL    HW127875   0.080   8.764   8.488
 5272SOL    HW227876   0.116   8.842   8.627
 5273SOL     OW27877   1.152   7.950   8.238
 5273SOL    HW127878   1.231   7.902   8.200
 5273SOL    HW227879   1.123   7.905   8.322
 5274SOL     OW27880   1.759   8.029   9.055
 5274SOL    HW127881   1.752   8.120   9.014
 5274SOL    HW227882   1.853   8.012   9.082
 5275SOL     OW27883   1.412   7.756   8.531
 5275SOL    HW127884   1.383   7.851   8.520
 5275SOL    HW227885   1.401   7.729   8.627
 5276SOL     OW27886   1.547   7.864   9.138
 5276SOL    HW127887   1.621   7.928   9.118
 5276SOL    HW227888   1.566   7.817   9.224
 5277SOL     OW27889   1.314   8.230   7.814
 5277SOL    HW127890   1.283   8.287   7.890
 5277SOL    HW227891   1.414   8.225   7.814
 5278SOL     OW27892   1.754   8.280   8.931
 5278SOL    HW127893   1.688   8.355   8.929
 5278SOL    HW227894   1.809   8.281   8.847
 5279SOL     OW27895   1.577   7.721   7.628
 5279SOL    HW127896   1.603   7.719   7.725
 5279SOL    HW227897   1.530   7.636   7.605
 5280SOL     OW27898   0.727   8.861   8.816
 5280SOL    HW127899   0.673   8.943   8.798
 5280SOL    HW227900   0.691   8.786   8.760
 5281SOL     OW27901   0.208   7.666   9.029
 5281SOL    HW127902   0.222   7.660   8.930
 5281SOL    HW227903   0.117   7.633   9.053
 5282SOL     OW27904   0.069   9.116   9.053
 5282SOL    HW127905   0.158   9.124   9.098
 5282SOL    HW227906   0.015   9.045   9.098
 5283SOL     OW27907   0.256   7.730   8.032
 5283SOL    HW127908   0.202   7.798   8.082
 5283SOL    HW227909   0.315   7.680   8.096
 5284SOL     OW27910   0.273   7.970   7.622
 5284SOL    HW127911   0.320   8.008   7.542
 5284SOL    HW227912   0.290   8.029   7.701
 5285SOL     OW27913   1.775   7.593   8.761
 5285SOL    HW127914   1.711   7.625   8.831
 5285SOL    HW227915   1.738   7.612   8.671
 5286SOL     OW27916   0.440   9.216   8.143
 5286SOL    HW127917   0.413   9.213   8.047
 5286SOL    HW227918   0.482   9.129   8.169
 5287SOL     OW27919   0.363   8.675   8.615
 5287SOL    HW127920   0.372   8.699   8.711
 5287SOL    HW227921   0.293   8.733   8.572
 5288SOL     OW27922   1.235   8.915   9.186
 5288SOL    HW127923   1.195   8.832   9.146
 5288SOL    HW227924   1.206   8.994   9.132
 5289SOL     OW27925   0.737   8.680   7.859
 5289SOL    HW127926   0.751   8.619   7.781
 5289SOL    HW227927   0.737   8.626   7.943
 5290SOL     OW27928   0.333   8.192   8.114
 5290SOL    HW127929   0.345   8.280   8.161
 5290SOL    HW227930   0.367   8.118   8.173
 5291SOL     OW27931   0.228   7.700   7.603
 5291SOL    HW127932   0.275   7.669   7.521
 5291SOL    HW227933   0.235   7.800   7.610
 5292SOL     OW27934   0.137   7.905   8.206
 5292SOL    HW127935   0.071   7.901   8.281
 5292SOL    HW227936   0.227   7.933   8.241
 5293SOL     OW27937   0.475   8.522   7.648
 5293SOL    HW127938   0.575   8.525   7.645
 5293SOL    HW227939   0.439   8.607   7.611
 5294SOL     OW27940   1.120   8.110   7.461
 5294SOL    HW127941   1.065   8.169   7.402
 5294SOL    HW227942   1.176   8.049   7.404
 5295SOL     OW27943   0.855   8.066   7.557
 5295SOL    HW127944   0.951   8.081   7.531
 5295SOL    HW227945   0.837   7.968   7.562
 5296SOL     OW27946   1.333   7.543   7.837
 5296SOL    HW127947   1.248   7.526   7.888
 5296SOL    HW227948   1.355   7.641   7.842
 5297SOL     OW27949   1.384   7.960   8.850
 5297SOL    HW127950   1.351   7.972   8.944
 5297SOL    HW227951   1.375   7.864   8.823
 5298SOL     OW27952   0.051   7.318   7.566
 5298SOL    HW127953   0.146   7.315   7.598
 5298SOL    HW227954   0.022   7.413   7.553
 5299SOL     OW27955   0.284   8.427   8.528
 5299SOL    HW127956   0.294   8.360   8.602
 5299SOL    HW227957   0.316   8.516   8.559
 5300SOL     OW27958   1.638   8.402   7.589
 5300SOL    HW127959   1.717   8.462   7.588
 5300SOL    HW227960   1.603   8.391   7.495
 5301SOL     OW27961   0.647   8.043   8.560
 5301SOL    HW127962   0.692   8.082   8.640
 5301SOL    HW227963   0.561   8.001   8.587
 5302SOL     OW27964   0.833   8.397   8.898
 5302SOL    HW127965   0.883   8.441   8.823
 5302SOL    HW227966   0.825   8.461   8.974
 5303SOL     OW27967   1.193   8.416   9.014
 5303SOL    HW127968   1.110   8.364   9.035
 5303SOL    HW227969   1.273   8.363   9.043
 5304SOL     OW27970   1.094   7.621   7.969
 5304SOL    HW127971   1.061   7.713   7.990
 5304SOL    HW227972   1.081   7.561   8.048
 5305SOL     OW27973   1.154   9.151   9.077
 5305SOL    HW127974   1.097   9.173   8.997
 5305SOL    HW227975   1.214   9.228   9.097
 5306SOL     OW27976   0.708   7.487   8.219
 5306SOL    HW127977   0.638   7.424   8.186
 5306SOL    HW227978   0.777   7.436   8.270
 5307SOL     OW27979   0.364   9.162   8.623
 5307SOL    HW127980   0.321   9.131   8.538
 5307SOL    HW227981   0.298   9.156   8.698
 5308SOL     OW27982   0.958   8.643   8.232
 5308SOL    HW127983   0.994   8.727   8.191
 5308SOL    HW227984   1.031   8.599   8.286
 5309SOL     OW27985   0.681   8.345   8.304
 5309SOL    HW127986   0.725   8.262   8.270
 5309SOL    HW227987   0.604   8.320   8.363
 5310SOL     OW27988   0.006   8.394   8.500
 5310SOL    HW127989   0.105   8.397   8.514
 5310SOL    HW227990   9.965   8.329   8.563
 5311SOL     OW27991   0.368   7.420   7.886
 5311SOL    HW127992   0.426   7.496   7.859
 5311SOL    HW227993   0.273   7.452   7.893
 5312SOL     OW27994   0.690   8.028   9.093
 5312SOL    HW127995   0.644   8.098   9.039
 5312SOL    HW227996   0.783   8.014   9.058
 5313SOL     OW27997   9.978   8.547   7.539
 5313SOL    HW127998   0.026   8.466   7.573
 5313SOL    HW227999   0.044   8.619   7.517
 5314SOL     OW28000   1.764   7.587   8.266
 5314SOL    HW128001   1.737   7.606   8.361
 5314SOL    HW228002   1.863   7.574   8.263
 5315SOL     OW28003   0.797   8.559   8.447
 5315SOL    HW128004   0.758   8.477   8.404
 5315SOL    HW228005   0.854   8.607   8.381
 5316SOL     OW28006   1.221   7.998   7.702
 5316SOL    HW128007   1.252   8.077   7.755
 5316SOL    HW228008   1.185   8.029   7.614
 5317SOL     OW28009   1.423   8.742   8.978
 5317SOL    HW128010   1.391   8.702   9.063
 5317SOL    HW228011   1.344   8.770   8.923
 5318SOL     OW28012   0.260   8.242   8.733
 5318SOL    HW128013   0.310   8.161   8.762
 5318SOL    HW228014   0.258   8.308   8.808
 5319SOL     OW28015   0.796   8.896   7.413
 5319SOL    HW128016   0.752   8.951   7.484
 5319SOL    HW228017   0.854   8.826   7.456
 5320SOL     OW28018   0.612   9.110   8.470
 5320SOL    HW128019   0.597   9.062   8.384
 5320SOL    HW228020   0.524   9.124   8.516
 5321SOL     OW28021   0.747   8.527   8.102
 5321SOL    HW128022   0.822   8.578   8.144
 5321SOL    HW228023   0.715   8.456   8.165
 5322SOL     OW28024   0.944   8.876   7.903
 5322SOL    HW128025   1.008   8.891   7.828
 5322SOL    HW228026   0.880   8.803   7.879
 5323SOL     OW28027   0.113   8.193   8.292
 5323SOL    HW128028   0.171   8.174   8.213
 5323SOL    HW228029   0.041   8.257   8.265
 5324SOL     OW28030   0.081   8.319   9.141
 5324SOL    HW128031   0.055   8.224   9.123
 5324SOL    HW228032   0.110   8.329   9.236
 5325SOL     OW28033   0.966   9.206   8.874
 5325SOL    HW128034   0.924   9.131   8.925
 5325SOL    HW228035   0.895   9.260   8.829
 5326SOL     OW28036   1.166   8.567   8.387
 5326SOL    HW128037   1.219   8.652   8.386
 5326SOL    HW228038   1.190   8.514   8.468
 5327SOL     OW28039   0.589   7.773   9.118
 5327SOL    HW128040   0.645   7.721   9.053
 5327SOL    HW228041   0.621   7.867   9.122
 5328SOL     OW28042   0.512   8.268   7.755
 5328SOL    HW128043   0.491   8.361   7.725
 5328SOL    HW228044   0.428   8.223   7.787
 5329SOL     OW28045   1.611   8.185   8.469
 5329SOL    HW128046   1.695   8.237   8.486
 5329SOL    HW228047   1.553   8.190   8.550
 5330SOL     OW28048   1.385   7.688   8.797
 5330SOL    HW128049   1.453   7.658   8.864
 5330SOL    HW228050   1.320   7.613   8.780
 5331SOL     OW28051   0.025   7.349   7.983
 5331SOL    HW128052   9.930   7.358   8.014
 5331SOL    HW228053   0.052   7.431   7.932
 5332SOL     OW28054   1.292   7.527   9.143
 5332SOL    HW128055   1.335   7.517   9.232
 5332SOL    HW228056   1.223   7.599   9.147
 5333SOL     OW28057   0.471   8.966   9.024
 5333SOL    HW128058   0.412   9.025   9.080
 5333SOL    HW228059   0.513   9.021   8.952
 5334SOL     OW28060   1.071   7.868   8.490
 5334SOL    HW128061   1.144   7.930   8.517
 5334SOL    HW228062   1.080   7.781   8.539
 5335SOL     OW28063   0.412   8.875   8.052
 5335SOL    HW128064   0.417   8.777   8.066
 5335SOL    HW228065   0.317   8.902   8.034
 5336SOL     OW28066   1.140   8.965   8.569
 5336SOL    HW128067   1.057   8.962   8.514
 5336SOL    HW228068   1.181   9.056   8.565
 5337SOL     OW28069   0.313   9.132   9.188
 5337SOL    HW128070   0.343   9.228   9.184
 5337SOL    HW228071   0.302   9.104   9.283
 5338SOL     OW28072   0.144   8.729   8.999
 5338SOL    HW128073   0.078   8.656   9.016
 5338SOL    HW228074   0.110   8.788   8.925
 5339SOL     OW28075   0.218   9.060   8.416
 5339SOL    HW128076   0.195   8.969   8.451
 5339SOL    HW228077   0.208   9.062   8.317
 5340SOL     OW28078   1.058   7.515   8.220
 5340SOL    HW128079   1.139   7.549   8.267
 5340SOL    HW228080   1.000   7.465   8.284
 5341SOL     OW28081   1.037   8.612   7.752
 5341SOL    HW128082   1.125   8.638   7.791
 5341SOL    HW228083   0.997   8.537   7.804
 5342SOL     OW28084   1.628   7.801   8.163
 5342SOL    HW128085   1.659   7.879   8.218
 5342SOL    HW228086   1.674   7.718   8.193
 5343SOL     OW28087   0.747   8.524   7.621
 5343SOL    HW128088   0.816   8.586   7.582
 5343SOL    HW228089   0.758   8.433   7.582
 5344SOL     OW28090   0.809   7.507   7.585
 5344SOL    HW128091   0.884   7.452   7.548
 5344SOL    HW228092   0.830   7.604   7.574
 5345SOL     OW28093   0.581   7.877   8.119
 5345SOL    HW128094   0.605   7.780   8.108
 5345SOL    HW228095   0.639   7.932   8.060
 5346SOL     OW28096   0.574   8.465   8.851
 5346SOL    HW128097   0.668   8.434   8.867
 5346SOL    HW228098   0.574   8.541   8.786
 5347SOL     OW28099   0.158   8.750   7.454
 5347SOL    HW128100   0.158   8.744   7.354
 5347SOL    HW228101   0.252   8.757   7.487
 5348SOL     OW28102   0.648   9.027   7.598
 5348SOL    HW128103   0.593   9.108   7.579
 5348SOL    HW228104   0.612   8.980   7.679
 5349SOL     OW28105   1.354   8.420   8.786
 5349SOL    HW128106   1.281   8.423   8.854
 5349SOL    HW228107   1.346   8.499   8.725
 5350SOL     OW28108   0.574   9.098   8.801
 5350SOL    HW128109   0.635   9.178   8.801
 5350SOL    HW228110   0.501   9.111   8.735
 5351SOL     OW28111   0.276   7.933   9.053
 5351SOL    HW128112   0.263   7.835   9.060
 5351SOL    HW228113   0.339   7.964   9.124
 5352SOL     OW28114   0.005   8.230   7.919
 5352SOL    HW128115   0.006   8.299   7.992
 5352SOL    HW228116   9.923   8.243   7.863
 5353SOL     OW28117   0.555   8.203   8.941
 5353SOL    HW128118   0.492   8.141   8.894
 5353SOL    HW228119   0.541   8.296   8.907
 5354SOL     OW28120   0.804   7.901   8.394
 5354SOL    HW128121   0.897   7.890   8.429
 5354SOL    HW228122   0.750   7.955   8.458
 5355SOL     OW28123   0.635   8.657   8.652
 5355SOL    HW128124   0.541   8.669   8.621
 5355SOL    HW228125   0.692   8.627   8.575
 5356SOL     OW28126   0.186   8.070   8.524
 5356SOL    HW128127   0.217   8.139   8.590
 5356SOL    HW228128   0.161   8.115   8.438
 5357SOL     OW28129   0.384   8.751   8.873
 5357SOL    HW128130   0.428   8.829   8.917
 5357SOL    HW228131   0.300   8.728   8.921
 5358SOL     OW28132   1.288   8.632   7.861
 5358SOL    HW128133   1.276   8.552   7.920
 5358SOL    HW228134   1.331   8.604   7.775
 5359SOL     OW28135   0.680   7.785   7.810
 5359SOL    HW128136   0.584   7.760   7.798
 5359SOL    HW228137   0.719   7.733   7.886
 5360SOL     OW28138   1.607   7.412   8.121
 5360SOL    HW128139   1.609   7.434   8.023
 5360SOL    HW228140   1.669   7.474   8.170
 5361SOL     OW28141   1.128   8.085   8.809
 5361SOL    HW128142   1.223   8.055   8.808
 5361SOL    HW228143   1.113   8.152   8.737
 5362SOL     OW28144   0.792   8.111   8.212
 5362SOL    HW128145   0.787   8.031   8.271
 5362SOL    HW228146   0.780   8.084   8.117
 5363SOL     OW28147   1.304   8.807   8.415
 5363SOL    HW128148   1.244   8.864   8.470
 5363SOL    HW228149   1.329   8.856   8.331
 5364SOL     OW28150   1.357   7.804   8.129
 5364SOL    HW128151   1.342   7.804   8.030
 5364SOL    HW228152   1.455   7.807   8.149
 5365SOL     OW28153   1.213   8.915   9.992
 5365SOL    HW128154   1.249   8.822   0.003
 5365SOL    HW228155   1.156   8.919   9.910
 5366SOL     OW28156   1.624   8.629   9.790
 5366SOL    HW128157   1.651   8.660   9.881
 5366SOL    HW228158   1.706   8.602   9.738
 5367SOL     OW28159   0.412   7.582   9.184
 5367SOL    HW128160   0.334   7.603   9.126
 5367SOL    HW228161   0.485   7.648   9.169
 5368SOL     OW28162   0.622   8.847   9.638
 5368SOL    HW128163   0.568   8.869   9.720
 5368SOL    HW228164   0.710   8.809   9.666
 5369SOL     OW28165   0.553   7.426   9.370
 5369SOL    HW128166   0.649   7.455   9.368
 5369SOL    HW228167   0.500   7.482   9.307
 5370SOL     OW28168   0.451   8.582   9.861
 5370SOL    HW128169   0.389   8.584   9.939
 5370SOL    HW228170   0.542   8.553   9.893
 5371SOL     OW28171   0.777   8.124   9.703
 5371SOL    HW128172   0.686   8.161   9.683
 5371SOL    HW228173   0.812   8.076   9.622
 5372SOL     OW28174   0.485   8.712   9.435
 5372SOL    HW128175   0.522   8.725   9.343
 5372SOL    HW228176   0.541   8.763   9.500
 5373SOL     OW28177   0.285   8.097   9.658
 5373SOL    HW128178   0.284   8.027   9.730
 5373SOL    HW228179   0.201   8.151   9.663
 5374SOL     OW28180   0.982   9.168   9.863
 5374SOL    HW128181   1.014   9.078   9.834
 5374SOL    HW228182   0.910   9.200   9.801
 5375SOL     OW28183   1.778   8.975   9.629
 5375SOL    HW128184   1.871   8.945   9.609
 5375SOL    HW228185   1.748   9.040   9.559
 5376SOL     OW28186   1.035   7.712   9.678
 5376SOL    HW128187   1.006   7.789   9.735
 5376SOL    HW228188   1.067   7.637   9.736
 5377SOL     OW28189   0.451   8.064   9.238
 5377SOL    HW128190   0.441   8.162   9.257
 5377SOL    HW228191   0.542   8.046   9.201
 5378SOL     OW28192   1.820   8.737   0.039
 5378SOL    HW128193   1.773   8.745   0.127
 5378SOL    HW228194   1.804   8.820   9.985
 5379SOL     OW28195   0.312   8.674   9.645
 5379SOL    HW128196   0.367   8.635   9.719
 5379SOL    HW228197   0.368   8.682   9.563
 5380SOL     OW28198   1.144   7.672   9.424
 5380SOL    HW128199   1.215   7.603   9.438
 5380SOL    HW228200   1.107   7.700   9.513
 5381SOL     OW28201   0.354   7.600   9.669
 5381SOL    HW128202   0.288   7.660   9.713
 5381SOL    HW228203   0.349   7.611   9.570
 5382SOL     OW28204   1.943   9.266   0.260
 5382SOL    HW128205   1.934   9.302   0.353
 5382SOL    HW228206   2.006   9.189   0.260
 5383SOL     OW28207   0.925   7.914   9.836
 5383SOL    HW128208   0.995   7.943   9.901
 5383SOL    HW228209   0.884   7.994   9.794
 5384SOL     OW28210   1.177   8.345   9.401
 5384SOL    HW128211   1.212   8.309   9.488
 5384SOL    HW228212   1.172   8.271   9.334
 5385SOL     OW28213   1.742   8.068   9.572
 5385SOL    HW128214   1.691   7.983   9.566
 5385SOL    HW228215   1.808   8.062   9.647
 5386SOL     OW28216   1.021   9.163   9.326
 5386SOL    HW128217   1.064   9.154   9.236
 5386SOL    HW228218   1.051   9.089   9.385
 5387SOL     OW28219   0.023   7.989   9.807
 5387SOL    HW128220   0.060   7.982   9.899
 5387SOL    HW228221   0.026   8.084   9.776
 5388SOL     OW28222   0.168   8.911   9.631
 5388SOL    HW128223   0.215   8.822   9.631
 5388SOL    HW228224   0.216   8.973   9.569
 5389SOL     OW28225   0.228   8.946   9.899
 5389SOL    HW128226   0.163   8.907   9.964
 5389SOL    HW228227   0.188   8.946   9.807
 5390SOL     OW28228   0.432   8.335   9.305
 5390SOL    HW128229   0.442   8.394   9.225
 5390SOL    HW228230   0.485   8.373   9.381
 5391SOL     OW28231   0.168   8.325   9.397
 5391SOL    HW128232   0.266   8.318   9.376
 5391SOL    HW228233   0.132   8.233   9.416
 5392SOL     OW28234   1.566   8.271   9.627
 5392SOL    HW128235   1.626   8.193   9.611
 5392SOL    HW228236   1.588   8.344   9.564
 5393SOL     OW28237   1.366   7.797   9.613
 5393SOL    HW128238   1.316   7.863   9.556
 5393SOL    HW228239   1.464   7.812   9.603
 5394SOL     OW28240   1.644   7.812   9.616
 5394SOL    HW128241   1.742   7.791   9.611
 5394SOL    HW228242   1.619   7.828   9.712
 5395SOL     OW28243   0.820   7.710   9.511
 5395SOL    HW128244   0.742   7.673   9.561
 5395SOL    HW228245   0.902   7.706   9.569
 5396SOL     OW28246   1.003   8.744   9.339
 5396SOL    HW128247   1.070   8.794   9.395
 5396SOL    HW228248   1.046   8.713   9.255
 5397SOL     OW28249   1.770   8.966   9.901
 5397SOL    HW128250   1.726   9.050   9.933
 5397SOL    HW228251   1.761   8.959   9.802
 5398SOL     OW28252   1.142   8.228   9.854
 5398SOL    HW128253   1.211   8.290   9.891
 5398SOL    HW228254   1.057   8.279   9.838
 5399SOL     OW28255   1.331   8.393   9.948
 5399SOL    HW128256   1.292   8.398   0.040
 5399SOL    HW228257   1.337   8.485   9.910
 5400SOL     OW28258   0.905   8.355   9.798
 5400SOL    HW128259   0.862   8.271   9.765
 5400SOL    HW228260   0.837   8.411   9.846
 5401SOL     OW28261   0.133   7.759   9.701
 5401SOL    HW128262   0.075   7.710   9.635
 5401SOL    HW228263   0.086   7.842   9.731
 5402SOL     OW28264   1.609   9.166   9.434
 5402SOL    HW128265   1.699   9.189   9.396
 5402SOL    HW228266   1.569   9.092   9.379
 5403SOL     OW28267   0.307   9.131   9.479
 5403SOL    HW128268   0.396   9.171   9.458
 5403SOL    HW228269   0.273   9.169   9.565
 5404SOL     OW28270   0.801   7.368   9.654
 5404SOL    HW128271   0.776   7.312   9.575
 5404SOL    HW228272   0.738   7.446   9.660
 5405SOL     OW28273   0.086   8.522   9.693
 5405SOL    HW128274   0.170   8.577   9.692
 5405SOL    HW228275   0.038   8.532   9.606
 5406SOL     OW28276   1.413   7.490   9.394
 5406SOL    HW128277   1.460   7.403   9.380
 5406SOL    HW228278   1.379   7.494   9.488
 5407SOL     OW28279   0.725   7.733   9.895
 5407SOL    HW128280   0.752   7.670   9.968
 5407SOL    HW228281   0.801   7.793   9.872
 5408SOL     OW28282   1.584   7.418   9.673
 5408SOL    HW128283   1.601   7.368   9.588
 5408SOL    HW228284   1.492   7.458   9.671
 5409SOL     OW28285   1.291   8.231   9.619
 5409SOL    HW128286   1.245   8.220   9.707
 5409SOL    HW228287   1.389   8.248   9.635
 5410SOL     OW28288   1.589   8.311   9.897
 5410SOL    HW128289   1.587   8.299   9.798
 5410SOL    HW228290   1.497   8.333   9.929
 5411SOL     OW28291   1.588   7.706   9.361
 5411SOL    HW128292   1.608   7.744   9.452
 5411SOL    HW228293   1.520   7.633   9.369
 5412SOL     OW28294   0.300   7.940   9.429
 5412SOL    HW128295   0.363   7.980   9.362
 5412SOL    HW228296   0.306   7.991   9.515
 5413SOL     OW28297   0.372   9.142   0.022
 5413SOL    HW128298   0.312   9.082   9.969
 5413SOL    HW228299   0.467   9.120   0.001
 5414SOL     OW28300   0.847   8.750   9.772
 5414SOL    HW128301   0.923   8.686   9.756
 5414SOL    HW228302   0.824   8.751   9.870
 5415SOL     OW28303   0.281   7.667   9.411
 5415SOL    HW128304   0.330   7.639   9.329
 5415SOL    HW228305   0.286   7.767   9.420
 5416SOL     OW28306   0.127   7.914   0.057
 5416SOL    HW128307   0.066   7.942   0.131
 5416SOL    HW228308   0.208   7.972   0.057
 5417SOL     OW28309   1.144   8.115   9.242
 5417SOL    HW128310   1.076   8.160   9.184
 5417SOL    HW228311   1.198   8.052   9.185
 5418SOL     OW28312   0.870   7.986   9.488
 5418SOL    HW128313   0.943   8.000   9.421
 5418SOL    HW228314   0.842   7.890   9.486
 5419SOL     OW28315   1.332   7.531   9.652
 5419SOL    HW128316   1.261   7.508   9.718
 5419SOL    HW228317   1.341   7.630   9.645
 5420SOL     OW28318   0.038   7.568   9.497
 5420SOL    HW128319   0.065   7.486   9.547
 5420SOL    HW228320   0.118   7.607   9.451
 5421SOL     OW28321   1.654   8.429   9.426
 5421SOL    HW128322   1.751   8.451   9.433
 5421SOL    HW228323   1.631   8.406   9.332
 5422SOL     OW28324   1.129   7.507   9.836
 5422SOL    HW128325   1.146   7.545   9.927
 5422SOL    HW228326   1.073   7.425   9.845
 5423SOL     OW28327   0.173   7.385   9.663
 5423SOL    HW128328   0.245   7.452   9.683
 5423SOL    HW228329   0.181   7.307   9.725
 5424SOL     OW28330   0.019   8.551   9.423
 5424SOL    HW128331   0.073   8.467   9.415
 5424SOL    HW228332   0.065   8.625   9.374
 5425SOL     OW28333   1.707   7.631   9.999
 5425SOL    HW128334   1.657   7.641   0.085
 5425SOL    HW228335   1.804   7.614   0.019
 5426SOL     OW28336   1.259   8.003   9.471
 5426SOL    HW128337   1.270   8.082   9.531
 5426SOL    HW228338   1.211   8.031   9.387
 5427SOL     OW28339   0.800   8.912   9.266
 5427SOL    HW128340   0.773   8.971   9.342
 5427SOL    HW228341   0.876   8.854   9.295
 5428SOL     OW28342   0.703   8.507   9.947
 5428SOL    HW128343   0.741   8.589   9.990
 5428SOL    HW228344   0.719   8.428   0.006
 5429SOL     OW28345   1.056   8.927   9.764
 5429SOL    HW128346   1.093   8.926   9.672
 5429SOL    HW228347   0.975   8.869   9.768
 5430SOL     OW28348   0.530   8.224   9.649
 5430SOL    HW128349   0.523   8.312   9.603
 5430SOL    HW228350   0.441   8.179   9.649
 5431SOL     OW28351   9.936   7.439   9.836
 5431SOL    HW128352   0.003   7.416   9.766
 5431SOL    HW228353   9.965   7.521   9.885
 5432SOL     OW28354   0.482   8.857   9.875
 5432SOL    HW128355   0.476   8.758   9.865
 5432SOL    HW228356   0.390   8.895   9.882
 5433SOL     OW28357   1.064   8.588   9.749
 5433SOL    HW128358   1.164   8.589   9.751
 5433SOL    HW228359   1.031   8.494   9.760
 5434SOL     OW28360   1.614   7.858   9.883
 5434SOL    HW128361   1.670   7.926   9.930
 5434SOL    HW228362   1.637   7.767   9.918
 5435SOL     OW28363   0.821   7.491   9.341
 5435SOL    HW128364   0.895   7.427   9.362
 5435SOL    HW228365   0.833   7.574   9.396
 5436SOL     OW28366   0.569   7.964   9.894
 5436SOL    HW128367   0.616   7.876   9.901
 5436SOL    HW228368   0.619   8.023   9.830
 5437SOL     OW28369   0.169   8.739   9.275
 5437SOL    HW128370   0.174   8.734   9.175
 5437SOL    HW228371   0.261   8.740   9.313
 5438SOL     OW28372   0.702   9.054   9.479
 5438SOL    HW128373   0.627   9.114   9.450
 5438SOL    HW228374   0.666   8.983   9.539
 5439SOL     OW28375   0.050   8.243   9.699
 5439SOL    HW128376   0.083   8.336   9.708
 5439SOL    HW228377   9.957   8.243   9.664
 5440SOL     OW28378   1.352   8.590   9.731
 5440SOL    HW128379   1.447   8.606   9.757
 5440SOL    HW228380   1.346   8.576   9.633
 5441SOL     OW28381   0.634   7.593   9.678
 5441SOL    HW128382   0.534   7.590   9.675
 5441SOL    HW228383   0.664   7.642   9.759
 5442SOL     OW28384   1.625   7.376   9.943
 5442SOL    HW128385   1.598   7.376   9.847
 5442SOL    HW228386   1.652   7.469   9.970
 5443SOL     OW28387   1.333   7.878   9.880
 5443SOL    HW128388   1.320   7.844   9.787
 5443SOL    HW228389   1.431   7.877   9.902
 5444SOL     OW28390   1.676   9.854   1.422
 5444SOL    HW128391   1.587   9.811   1.434
 5444SOL    HW228392   1.736   9.825   1.497
 5445SOL     OW28393   0.375   9.401   0.106
 5445SOL    HW128394   0.356   9.309   0.073
 5445SOL    HW228395   0.362   9.467   0.031
 5446SOL     OW28396   1.156   9.324   1.290
 5446SOL    HW128397   1.108   9.275   1.362
 5446SOL    HW228398   1.123   9.292   1.201
 5447SOL     OW28399   0.621   9.247   0.163
 5447SOL    HW128400   0.698   9.306   0.140
 5447SOL    HW228401   0.536   9.300   0.155
 5448SOL     OW28402   0.755   9.793   0.579
 5448SOL    HW128403   0.763   9.872   0.518
 5448SOL    HW228404   0.719   9.715   0.529
 5449SOL     OW28405   1.696   9.546   1.107
 5449SOL    HW128406   1.735   9.637   1.123
 5449SOL    HW228407   1.597   9.554   1.099
 5450SOL     OW28408   1.116   9.559   0.356
 5450SOL    HW128409   1.192   9.620   0.378
 5450SOL    HW228410   1.106   9.490   0.428
 5451SOL     OW28411   0.452   9.936   0.118
 5451SOL    HW128412   0.501   0.020   0.094
 5451SOL    HW228413   0.496   9.859   0.072
 5452SOL     OW28414   0.999   9.885   1.708
 5452SOL    HW128415   1.025   9.794   1.742
 5452SOL    HW228416   1.064   9.953   1.741
 5453SOL     OW28417   1.198   9.478   0.098
 5453SOL    HW128418   1.279   9.426   0.123
 5453SOL    HW228419   1.152   9.510   0.181
 5454SOL     OW28420   1.545   0.008   1.231
 5454SOL    HW128421   1.504   0.091   1.268
 5454SOL    HW228422   1.612   9.972   1.295
 5455SOL     OW28423   0.415   9.481   0.533
 5455SOL    HW128424   0.371   9.514   0.617
 5455SOL    HW228425   0.357   9.504   0.454
 5456SOL     OW28426   1.790   9.795   1.171
 5456SOL    HW128427   1.877   9.845   1.166
 5456SOL    HW228428   1.746   9.814   1.258
 5457SOL     OW28429   0.997   9.678   0.650
 5457SOL    HW128430   1.067   9.728   0.702
 5457SOL    HW228431   0.923   9.740   0.624
 5458SOL     OW28432   1.056   9.624   1.806
 5458SOL    HW128433   1.102   9.617   1.894
 5458SOL    HW228434   0.978   9.560   1.804
 5459SOL     OW28435   1.776   9.826   0.274
 5459SOL    HW128436   1.832   9.820   0.191
 5459SOL    HW228437   1.785   9.917   0.314
 5460SOL     OW28438   0.820   9.248   1.655
 5460SOL    HW128439   0.835   9.151   1.677
 5460SOL    HW228440   0.832   9.303   1.737
 5461SOL     OW28441   1.745   9.833   0.892
 5461SOL    HW128442   1.687   9.911   0.865
 5461SOL    HW228443   1.748   9.828   0.992
 5462SOL     OW28444   1.407   9.201   0.858
 5462SOL    HW128445   1.357   9.288   0.866
 5462SOL    HW228446   1.496   9.218   0.815
 5463SOL     OW28447   1.745   9.458   1.764
 5463SOL    HW128448   1.705   9.478   1.853
 5463SOL    HW228449   1.726   9.364   1.738
 5464SOL     OW28450   0.991   0.316   1.215
 5464SOL    HW128451   1.019   0.220   1.211
 5464SOL    HW228452   0.903   0.327   1.169
 5465SOL     OW28453   1.364   9.683   0.420
 5465SOL    HW128454   1.333   9.765   0.373
 5465SOL    HW228455   1.464   9.676   0.413
 5466SOL     OW28456   0.117   9.807   1.502
 5466SOL    HW128457   0.131   9.718   1.459
 5466SOL    HW228458   0.189   9.824   1.568
 5467SOL     OW28459   0.154   9.540   1.419
 5467SOL    HW128460   0.172   9.442   1.426
 5467SOL    HW228461   0.110   9.560   1.331
 5468SOL     OW28462   1.029   0.042   1.178
 5468SOL    HW128463   1.034   9.960   1.122
 5468SOL    HW228464   1.003   0.017   1.271
 5469SOL     OW28465   1.631   9.660   0.428
 5469SOL    HW128466   1.694   9.720   0.379
 5469SOL    HW228467   1.664   9.646   0.521
 5470SOL     OW28468   0.856   9.622   0.307
 5470SOL    HW128469   0.796   9.584   0.377
 5470SOL    HW228470   0.951   9.607   0.333
 5471SOL     OW28471   0.908   0.201   0.499
 5471SOL    HW128472   0.861   0.123   0.456
 5471SOL    HW228473   0.848   0.241   0.568
 5472SOL     OW28474   0.045   9.505   0.514
 5472SOL    HW128475   0.105   9.525   0.437
 5472SOL    HW228476   9.957   9.552   0.501
 5473SOL     OW28477   0.987   9.970   1.445
 5473SOL    HW128478   0.897   0.011   1.432
 5473SOL    HW228479   0.991   9.927   1.535
 5474SOL     OW28480   0.743   9.256   0.416
 5474SOL    HW128481   0.692   9.237   0.332
 5474SOL    HW228482   0.722   9.348   0.447
 5475SOL     OW28483   1.594   9.537   1.544
 5475SOL    HW128484   1.538   9.620   1.534
 5475SOL    HW228485   1.649   9.544   1.628
 5476SOL     OW28486   1.304   9.458   0.893
 5476SOL    HW128487   1.328   9.515   0.815
 5476SOL    HW228488   1.342   9.499   0.977
 5477SOL     OW28489   1.412   9.332   0.196
 5477SOL    HW128490   1.391   9.236   0.173
 5477SOL    HW228491   1.393   9.348   0.292
 5478SOL     OW28492   1.600   9.263   1.586
 5478SOL    HW128493   1.596   9.217   1.497
 5478SOL    HW228494   1.588   9.362   1.573
 5479SOL     OW28495   0.837   9.482   0.740
 5479SOL    HW128496   0.889   9.421   0.799
 5479SOL    HW228497   0.897   9.554   0.706
 5480SOL     OW28498   1.345   9.865   1.123
 5480SOL    HW128499   1.326   9.909   1.035
 5480SOL    HW228500   1.425   9.907   1.165
 5481SOL     OW28501   1.632   9.309   0.472
 5481SOL    HW128502   1.646   9.255   0.388
 5481SOL    HW228503   1.540   9.348   0.472
 5482SOL     OW28504   1.196   9.794   0.798
 5482SOL    HW128505   1.269   9.733   0.768
 5482SOL    HW228506   1.234   9.885   0.816
 5483SOL     OW28507   1.804   9.800   1.656
 5483SOL    HW128508   1.761   9.860   1.724
 5483SOL    HW228509   1.900   9.785   1.681
 5484SOL     OW28510   1.418   9.595   1.109
 5484SOL    HW128511   1.395   9.692   1.107
 5484SOL    HW228512   1.393   9.557   1.198
 5485SOL     OW28513   1.609   9.540   0.165
 5485SOL    HW128514   1.621   9.573   0.258
 5485SOL    HW228515   1.541   9.467   0.164
 5486SOL     OW28516   0.171   9.551   1.695
 5486SOL    HW128517   0.178   9.550   1.595
 5486SOL    HW228518   0.080   9.520   1.722
 5487SOL     OW28519   0.261   9.799   0.255
 5487SOL    HW128520   0.336   9.840   0.205
 5487SOL    HW228521   0.255   9.839   0.347
 5488SOL     OW28522   1.797   9.477   1.363
 5488SOL    HW128523   1.722   9.501   1.425
 5488SOL    HW228524   1.765   9.487   1.268
 5489SOL     OW28525   0.254   9.533   0.318
 5489SOL    HW128526   0.293   9.475   0.246
 5489SOL    HW228527   0.256   9.628   0.289
 5490SOL     OW28528   1.131   9.879   0.032
 5490SOL    HW128529   1.136   9.966   9.983
 5490SOL    HW228530   1.204   9.818   0.000
 5491SOL     OW28531   0.887   9.866   0.171
 5491SOL    HW128532   0.978   9.864   0.130
 5491SOL    HW228533   0.867   9.776   0.212
 5492SOL     OW28534   1.373   9.403   0.456
 5492SOL    HW128535   1.290   9.376   0.504
 5492SOL    HW228536   1.372   9.502   0.442
 5493SOL     OW28537   1.427   9.748   1.457
 5493SOL    HW128538   1.366   9.827   1.449
 5493SOL    HW228539   1.384   9.667   1.416
 5494SOL     OW28540   0.036   9.255   0.248
 5494SOL    HW128541   0.120   9.265   0.302
 5494SOL    HW228542   9.986   9.341   0.247
 5495SOL     OW28543   1.122   9.379   0.566
 5495SOL    HW128544   1.089   9.424   0.649
 5495SOL    HW228545   1.070   9.294   0.551
 5496SOL     OW28546   0.269   9.241   0.446
 5496SOL    HW128547   0.339   9.304   0.479
 5496SOL    HW228548   0.191   9.241   0.509
 5497SOL     OW28549   1.806   9.440   0.870
 5497SOL    HW128550   1.770   9.470   0.959
 5497SOL    HW228551   1.906   9.435   0.875
 5498SOL     OW28552   1.284   9.913   0.297
 5498SOL    HW128553   1.266   9.989   0.359
 5498SOL    HW228554   1.214   9.912   0.226
 5499SOL     OW28555   0.540   9.724   1.750
 5499SOL    HW128556   0.606   9.742   1.677
 5499SOL    HW228557   0.566   9.775   1.832
 5500SOL     OW28558   0.498   0.021   0.380
 5500SOL    HW128559   0.472   0.117   0.393
 5500SOL    HW228560   0.480   9.994   0.286
 5501SOL     OW28561   1.348   9.502   1.358
 5501SOL    HW128562   1.407   9.458   1.425
 5501SOL    HW228563   1.273   9.441   1.333
 5502SOL     OW28564   0.038   9.247   0.597
 5502SOL    HW128565   9.946   9.223   0.627
 5502SOL    HW228566   0.042   9.344   0.574
 5503SOL     OW28567   1.257   9.409   1.750
 5503SOL    HW128568   1.301   9.402   1.839
 5503SOL    HW228569   1.204   9.494   1.746
 5504SOL     OW28570   1.068   9.805   1.041
 5504SOL    HW128571   1.146   9.785   1.100
 5504SOL    HW228572   1.095   9.796   0.945
 5505SOL     OW28573   1.040   9.366   0.889
 5505SOL    HW128574   1.133   9.403   0.893
 5505SOL    HW228575   1.030   9.294   0.958
 5506SOL     OW28576   1.675   9.634   0.711
 5506SOL    HW128577   1.695   9.715   0.766
 5506SOL    HW228578   1.721   9.554   0.751
 5507SOL     OW28579   0.837   9.408   0.131
 5507SOL    HW128580   0.906   9.337   0.143
 5507SOL    HW228581   0.854   9.482   0.196
 5508SOL     OW28582   0.680   9.697   0.827
 5508SOL    HW128583   0.721   9.606   0.819
 5508SOL    HW228584   0.697   9.748   0.742
 5509SOL     OW28585   0.276   9.809   1.733
 5509SOL    HW128586   0.226   9.723   1.739
 5509SOL    HW228587   0.374   9.790   1.738
 5510SOL     OW28588   0.807   9.885   0.981
 5510SOL    HW128589   0.895   9.847   1.009
 5510SOL    HW228590   0.753   9.813   0.936
 5511SOL     OW28591   0.689   9.518   0.508
 5511SOL    HW128592   0.590   9.504   0.517
 5511SOL    HW228593   0.734   9.496   0.595
 5512SOL     OW28594   1.649   9.254   0.740
 5512SOL    HW128595   1.641   9.282   0.645
 5512SOL    HW228596   1.707   9.319   0.790
 5513SOL     OW28597   1.395   9.633   0.697
 5513SOL    HW128598   1.371   9.651   0.601
 5513SOL    HW228599   1.494   9.631   0.707
 5514SOL     OW28600   0.411   9.491   1.824
 5514SOL    HW128601   0.326   9.492   1.773
 5514SOL    HW228602   0.467   9.570   1.799
 5515SOL     OW28603   0.585   9.308   1.943
 5515SOL    HW128604   0.679   9.330   1.916
 5515SOL    HW228605   0.521   9.368   1.894
 5516SOL     OW28606   0.727   9.820   2.356
 5516SOL    HW128607   0.668   9.892   2.319
 5516SOL    HW228608   0.699   9.732   2.320
 5517SOL     OW28609   0.598   9.510   2.850
 5517SOL    HW128610   0.680   9.567   2.842
 5517SOL    HW228611   0.614   9.422   2.805
 5518SOL     OW28612   1.077   9.580   2.286
 5518SOL    HW128613   1.057   9.674   2.313
 5518SOL    HW228614   1.113   9.529   2.364
 5519SOL     OW28615   0.607   9.866   1.970
 5519SOL    HW128616   0.594   9.965   1.972
 5519SOL    HW228617   0.700   9.844   1.997
 5520SOL     OW28618   1.049   9.929   3.392
 5520SOL    HW128619   1.064   9.831   3.403
 5520SOL    HW228620   1.081   9.977   3.474
 5521SOL     OW28621   1.192   9.576   2.037
 5521SOL    HW128622   1.247   9.494   2.027
 5521SOL    HW228623   1.151   9.579   2.128
 5522SOL     OW28624   0.424   9.801   2.993
 5522SOL    HW128625   0.394   9.706   2.997
 5522SOL    HW228626   0.345   9.862   2.998
 5523SOL     OW28627   0.383   9.508   2.308
 5523SOL    HW128628   0.326   9.553   2.376
 5523SOL    HW228629   0.348   9.529   2.216
 5524SOL     OW28630   1.012   9.838   2.354
 5524SOL    HW128631   1.052   9.868   2.441
 5524SOL    HW228632   0.913   9.841   2.360
 5525SOL     OW28633   1.068   9.500   3.635
 5525SOL    HW128634   1.109   9.549   3.712
 5525SOL    HW228635   0.982   9.460   3.664
 5526SOL     OW28636   1.804   9.853   2.136
 5526SOL    HW128637   1.757   9.773   2.173
 5526SOL    HW228638   1.817   9.921   2.209
 5527SOL     OW28639   0.715   9.230   3.535
 5527SOL    HW128640   0.787   9.161   3.524
 5527SOL    HW228641   0.747   9.300   3.599
 5528SOL     OW28642   1.781   9.925   2.669
 5528SOL    HW128643   1.777   0.012   2.718
 5528SOL    HW228644   1.876   9.899   2.653
 5529SOL     OW28645   1.375   9.234   2.600
 5529SOL    HW128646   1.319   9.315   2.586
 5529SOL    HW228647   1.472   9.257   2.586
 5530SOL     OW28648   1.780   9.439   3.691
 5530SOL    HW128649   1.699   9.469   3.742
 5530SOL    HW228650   1.835   9.380   3.750
 5531SOL     OW28651   0.345   9.473   2.687
 5531SOL    HW128652   0.436   9.499   2.719
 5531SOL    HW228653   0.346   9.379   2.654
 5532SOL     OW28654   0.351   9.536   2.968
 5532SOL    HW128655   0.297   9.520   2.886
 5532SOL    HW228656   0.448   9.520   2.948
 5533SOL     OW28657   0.942   0.354   3.042
 5533SOL    HW128658   0.951   0.254   3.037
 5533SOL    HW228659   0.858   0.382   2.995
 5534SOL     OW28660   1.430   9.624   2.247
 5534SOL    HW128661   1.408   9.677   2.166
 5534SOL    HW228662   1.528   9.628   2.265
 5535SOL     OW28663   0.188   9.409   3.155
 5535SOL    HW128664   0.249   9.465   3.099
 5535SOL    HW228665   0.138   9.345   3.097
 5536SOL     OW28666   0.977   0.076   3.003
 5536SOL    HW128667   1.004   0.006   2.937
 5536SOL    HW228668   0.918   0.035   3.073
 5537SOL     OW28669   1.691   9.648   2.295
 5537SOL    HW128670   1.776   9.598   2.283
 5537SOL    HW228671   1.679   9.672   2.391
 5538SOL     OW28672   0.856   9.542   2.125
 5538SOL    HW128673   0.776   9.538   2.186
 5538SOL    HW228674   0.939   9.540   2.180
 5539SOL     OW28675   0.971   0.237   2.366
 5539SOL    HW128676   0.939   0.173   2.295
 5539SOL    HW228677   0.894   0.264   2.423
 5540SOL     OW28678   0.067   9.491   2.279
 5540SOL    HW128679   0.116   9.521   2.197
 5540SOL    HW228680   0.104   9.538   2.359
 5541SOL     OW28681   0.833   9.956   3.204
 5541SOL    HW128682   0.762   0.021   3.232
 5541SOL    HW228683   0.897   9.942   3.279
 5542SOL     OW28684   0.416   9.872   2.724
 5542SOL    HW128685   0.486   9.824   2.671
 5542SOL    HW228686   0.426   9.850   2.821
 5543SOL     OW28687   0.660   9.279   2.205
 5543SOL    HW128688   0.632   9.294   2.111
 5543SOL    HW228689   0.652   9.365   2.256
 5544SOL     OW28690   1.354   9.340   2.015
 5544SOL    HW128691   1.360   9.245   1.985
 5544SOL    HW228692   1.343   9.344   2.115
 5545SOL     OW28693   0.734   9.475   2.567
 5545SOL    HW128694   0.692   9.392   2.603
 5545SOL    HW228695   0.832   9.476   2.589
 5546SOL     OW28696   1.610   9.292   2.271
 5546SOL    HW128697   1.639   9.241   2.189
 5546SOL    HW228698   1.511   9.306   2.268
 5547SOL     OW28699   1.487   9.872   3.783
 5547SOL    HW128700   1.513   9.809   3.710
 5547SOL    HW228701   1.551   9.864   3.859
 5548SOL     OW28702   1.610   9.476   2.001
 5548SOL    HW128703   1.638   9.497   2.094
 5548SOL    HW228704   1.520   9.433   2.002
 5549SOL     OW28705   0.203   9.605   2.495
 5549SOL    HW128706   0.164   9.687   2.537
 5549SOL    HW228707   0.248   9.550   2.565
 5550SOL     OW28708   0.381   9.779   2.109
 5550SOL    HW128709   0.463   9.809   2.060
 5550SOL    HW228710   0.352   9.851   2.172
 5551SOL     OW28711   0.265   9.544   2.057
 5551SOL    HW128712   0.316   9.509   1.978
 5551SOL    HW228713   0.290   9.639   2.074
 5552SOL     OW28714   0.146   9.808   2.680
 5552SOL    HW128715   0.106   9.899   2.689
 5552SOL    HW228716   0.244   9.813   2.696
 5553SOL     OW28717   0.859   9.809   2.050
 5553SOL    HW128718   0.955   9.837   2.046
 5553SOL    HW228719   0.854   9.711   2.068
 5554SOL     OW28720   1.343   9.370   2.284
 5554SOL    HW128721   1.283   9.357   2.363
 5554SOL    HW228722   1.371   9.466   2.278
 5555SOL     OW28723   0.174   9.298   1.910
 5555SOL    HW128724   0.233   9.238   1.963
 5555SOL    HW228725   0.159   9.383   1.959
 5556SOL     OW28726   0.684   9.879   2.973
 5556SOL    HW128727   0.729   9.898   3.060
 5556SOL    HW228728   0.589   9.853   2.988
 5557SOL     OW28729   1.206   9.480   2.525
 5557SOL    HW128730   1.262   9.563   2.534
 5557SOL    HW228731   1.127   9.487   2.586
 5558SOL     OW28732   0.597   9.275   2.705
 5558SOL    HW128733   0.518   9.246   2.651
 5558SOL    HW228734   0.608   9.213   2.783
 5559SOL     OW28735   0.097   0.287   3.033
 5559SOL    HW128736   0.069   0.376   2.999
 5559SOL    HW228737   0.028   0.218   3.008
 5560SOL     OW28738   0.318   9.239   2.302
 5560SOL    HW128739   0.342   9.335   2.302
 5560SOL    HW228740   0.219   9.229   2.316
 5561SOL     OW28741   1.822   9.482   2.624
 5561SOL    HW128742   1.860   9.455   2.712
 5561SOL    HW228743   1.895   9.483   2.555
 5562SOL     OW28744   0.186   9.976   3.260
 5562SOL    HW128745   0.219   9.913   3.331
 5562SOL    HW228746   0.216   0.069   3.282
 5563SOL     OW28747   0.082   0.074   2.717
 5563SOL    HW128748   0.176   0.108   2.720
 5563SOL    HW228749   0.047   0.079   2.623
 5564SOL     OW28750   0.568   0.026   2.249
 5564SOL    HW128751   0.570   0.074   2.161
 5564SOL    HW228752   0.474   0.014   2.279
 5565SOL     OW28753   0.047   9.225   2.356
 5565SOL    HW128754   9.968   9.167   2.336
 5565SOL    HW228755   0.028   9.319   2.327
 5566SOL     OW28756   1.261   9.303   3.642
 5566SOL    HW128757   1.304   9.312   3.732
 5566SOL    HW228758   1.198   9.380   3.628
 5567SOL     OW28759   1.058   9.873   2.830
 5567SOL    HW128760   1.084   9.889   2.735
 5567SOL    HW228761   1.136   9.834   2.879
 5568SOL     OW28762   0.986   9.506   2.701
 5568SOL    HW128763   0.934   9.577   2.747
 5568SOL    HW228764   0.999   9.429   2.763
 5569SOL     OW28765   1.650   9.696   2.565
 5569SOL    HW128766   1.689   9.778   2.608
 5569SOL    HW228767   1.701   9.616   2.596
 5570SOL     OW28768   0.854   9.367   1.909
 5570SOL    HW128769   0.905   9.284   1.933
 5570SOL    HW228770   0.859   9.432   1.984
 5571SOL     OW28771   0.613   9.731   2.595
 5571SOL    HW128772   0.651   9.639   2.602
 5571SOL    HW228773   0.658   9.780   2.520
 5572SOL     OW28774   0.843   9.698   2.839
 5572SOL    HW128775   0.924   9.757   2.831
 5572SOL    HW228776   0.769   9.750   2.881
 5573SOL     OW28777   0.207   9.958   2.990
 5573SOL    HW128778   0.190   9.966   3.088
 5573SOL    HW228779   0.135   0.006   2.940
 5574SOL     OW28780   0.653   9.541   2.315
 5574SOL    HW128781   0.553   9.538   2.313
 5574SOL    HW228782   0.686   9.519   2.407
 5575SOL     OW28783   1.641   9.288   2.540
 5575SOL    HW128784   1.636   9.292   2.440
 5575SOL    HW228785   1.703   9.359   2.573
 5576SOL     OW28786   1.368   9.713   2.501
 5576SOL    HW128787   1.375   9.690   2.404
 5576SOL    HW228788   1.459   9.715   2.542
 5577SOL     OW28789   1.646   9.851   5.135
 5577SOL    HW128790   1.567   9.802   5.172
 5577SOL    HW228791   1.724   9.840   5.197
 5578SOL     OW28792   0.366   9.446   3.770
 5578SOL    HW128793   0.333   9.369   3.716
 5578SOL    HW228794   0.396   9.519   3.709
 5579SOL     OW28795   1.235   9.291   5.014
 5579SOL    HW128796   1.181   9.297   5.098
 5579SOL    HW228797   1.215   9.205   4.968
 5580SOL     OW28798   0.589   9.307   3.875
 5580SOL    HW128799   0.665   9.341   3.819
 5580SOL    HW228800   0.507   9.362   3.856
 5581SOL     OW28801   0.754   9.803   4.235
 5581SOL    HW128802   0.776   9.872   4.166
 5581SOL    HW228803   0.692   9.735   4.195
 5582SOL     OW28804   1.309   9.737   5.505
 5582SOL    HW128805   1.404   9.762   5.524
 5582SOL    HW228806   1.286   9.656   5.558
 5583SOL     OW28807   1.702   9.555   4.813
 5583SOL    HW128808   1.734   9.649   4.823
 5583SOL    HW228809   1.603   9.554   4.804
 5584SOL     OW28810   1.046   9.543   4.069
 5584SOL    HW128811   1.033   9.608   4.144
 5584SOL    HW228812   1.072   9.454   4.106
 5585SOL     OW28813   0.543   9.844   3.763
 5585SOL    HW128814   0.528   9.943   3.765
 5585SOL    HW228815   0.640   9.825   3.774
 5586SOL     OW28816   0.919   9.921   5.342
 5586SOL    HW128817   0.945   9.837   5.389
 5586SOL    HW228818   0.995   9.985   5.345
 5587SOL     OW28819   1.195   9.618   3.848
 5587SOL    HW128820   1.292   9.628   3.869
 5587SOL    HW228821   1.145   9.593   3.931
 5588SOL     OW28822   0.369   9.768   4.923
 5588SOL    HW128823   0.370   9.679   4.878
 5588SOL    HW228824   0.324   9.835   4.864
 5589SOL     OW28825   1.442   9.984   4.999
 5589SOL    HW128826   1.462   0.081   4.984
 5589SOL    HW228827   1.523   9.938   5.035
 5590SOL     OW28828   0.369   9.473   4.147
 5590SOL    HW128829   0.323   9.463   4.235
 5590SOL    HW228830   0.306   9.515   4.081
 5591SOL     OW28831   1.761   9.819   4.870
 5591SOL    HW128832   1.851   9.863   4.865
 5591SOL    HW228833   1.722   9.833   4.961
 5592SOL     OW28834   0.981   9.663   4.313
 5592SOL    HW128835   1.044   9.721   4.365
 5592SOL    HW228836   0.897   9.714   4.294
 5593SOL     OW28837   1.023   9.711   5.490
 5593SOL    HW128838   1.121   9.728   5.492
 5593SOL    HW228839   1.006   9.614   5.501
 5594SOL     OW28840   1.672   9.839   3.979
 5594SOL    HW128841   1.764   9.853   3.943
 5594SOL    HW228842   1.672   9.759   4.040
 5595SOL     OW28843   1.749   9.855   4.583
 5595SOL    HW128844   1.700   9.933   4.545
 5595SOL    HW228845   1.738   9.854   4.683
 5596SOL     OW28846   1.400   9.210   4.542
 5596SOL    HW128847   1.356   9.299   4.557
 5596SOL    HW228848   1.489   9.224   4.500
 5597SOL     OW28849   1.762   9.462   5.501
 5597SOL    HW128850   1.707   9.502   5.574
 5597SOL    HW228851   1.821   9.392   5.540
 5598SOL     OW28852   1.039   0.317   5.012
 5598SOL    HW128853   1.096   0.238   5.037
 5598SOL    HW228854   0.945   0.300   5.040
 5599SOL     OW28855   1.383   9.640   4.136
 5599SOL    HW128856   1.333   9.720   4.103
 5599SOL    HW228857   1.482   9.657   4.128
 5600SOL     OW28858   0.228   9.877   5.143
 5600SOL    HW128859   0.281   9.821   5.079
 5600SOL    HW228860   0.223   9.829   5.231
 5601SOL     OW28861   1.010   9.975   4.918
 5601SOL    HW128862   1.020   9.896   4.858
 5601SOL    HW228863   0.925   9.968   4.971
 5602SOL     OW28864   1.663   9.628   4.153
 5602SOL    HW128865   1.757   9.600   4.132
 5602SOL    HW228866   1.652   9.637   4.252
 5603SOL     OW28867   0.809   9.567   3.935
 5603SOL    HW128868   0.733   9.572   4.001
 5603SOL    HW228869   0.895   9.556   3.985
 5604SOL     OW28870   0.975   0.147   4.175
 5604SOL    HW128871   0.923   0.086   4.115
 5604SOL    HW228872   0.913   0.189   4.242
 5605SOL     OW28873   0.074   9.531   4.217
 5605SOL    HW128874   0.091   9.555   4.122
 5605SOL    HW228875   0.049   9.614   4.268
 5606SOL     OW28876   0.797   9.974   5.097
 5606SOL    HW128877   0.777   0.072   5.101
 5606SOL    HW228878   0.834   9.944   5.185
 5607SOL     OW28879   0.748   9.252   4.103
 5607SOL    HW128880   0.679   9.282   4.038
 5607SOL    HW228881   0.764   9.325   4.171
 5608SOL     OW28882   1.622   9.508   5.269
 5608SOL    HW128883   1.567   9.592   5.275
 5608SOL    HW228884   1.675   9.497   5.353
 5609SOL     OW28885   1.303   9.462   4.608
 5609SOL    HW128886   1.319   9.525   4.532
 5609SOL    HW228887   1.350   9.496   4.690
 5610SOL     OW28888   1.382   9.287   3.895
 5610SOL    HW128889   1.380   9.187   3.892
 5610SOL    HW228890   1.351   9.318   3.985
 5611SOL     OW28891   1.575   9.236   5.283
 5611SOL    HW128892   1.573   9.201   5.190
 5611SOL    HW228893   1.591   9.335   5.281
 5612SOL     OW28894   0.787   9.446   4.298
 5612SOL    HW128895   0.753   9.395   4.377
 5612SOL    HW228896   0.862   9.506   4.326
 5613SOL     OW28897   1.329   9.844   4.792
 5613SOL    HW128898   1.353   9.896   4.710
 5613SOL    HW228899   1.364   9.891   4.873
 5614SOL     OW28900   1.599   9.275   4.153
 5614SOL    HW128901   1.619   9.228   4.067
 5614SOL    HW228902   1.504   9.305   4.153
 5615SOL     OW28903   1.156   9.819   4.453
 5615SOL    HW128904   1.243   9.770   4.453
 5615SOL    HW228905   1.132   9.844   4.547
 5616SOL     OW28906   1.773   9.844   5.395
 5616SOL    HW128907   1.747   9.941   5.393
 5616SOL    HW228908   1.869   9.836   5.423
 5617SOL     OW28909   1.427   9.589   4.819
 5617SOL    HW128910   1.395   9.683   4.805
 5617SOL    HW228911   1.409   9.560   4.913
 5618SOL     OW28912   1.572   9.768   5.567
 5618SOL    HW128913   1.645   9.791   5.503
 5618SOL    HW228914   1.594   9.682   5.613
 5619SOL     OW28915   1.575   9.490   3.874
 5619SOL    HW128916   1.596   9.517   3.968
 5619SOL    HW228917   1.508   9.416   3.874
 5620SOL     OW28918   0.062   9.491   5.488
 5620SOL    HW128919   9.981   9.504   5.431
 5620SOL    HW228920   0.037   9.442   5.571
 5621SOL     OW28921   0.304   9.834   3.912
 5621SOL    HW128922   0.396   9.830   3.873
 5621SOL    HW228923   0.303   9.899   3.988
 5622SOL     OW28924   1.799   9.461   5.060
 5622SOL    HW128925   1.728   9.484   5.127
 5622SOL    HW228926   1.765   9.483   4.968
 5623SOL     OW28927   0.205   9.580   3.951
 5623SOL    HW128928   0.258   9.525   3.887
 5623SOL    HW228929   0.228   9.677   3.940
 5624SOL     OW28930   0.011   9.790   4.368
 5624SOL    HW128931   0.042   9.877   4.330
 5624SOL    HW228932   0.016   9.793   4.468
 5625SOL     OW28933   1.077   9.864   3.810
 5625SOL    HW128934   1.111   9.926   3.739
 5625SOL    HW228935   1.129   9.779   3.808
 5626SOL     OW28936   0.813   9.809   3.814
 5626SOL    HW128937   0.909   9.831   3.798
 5626SOL    HW228938   0.806   9.716   3.849
 5627SOL     OW28939   1.334   9.375   4.151
 5627SOL    HW128940   1.261   9.362   4.217
 5627SOL    HW228941   1.354   9.473   4.141
 5628SOL     OW28942   1.438   9.716   5.249
 5628SOL    HW128943   1.377   9.733   5.327
 5628SOL    HW228944   1.393   9.655   5.184
 5629SOL     OW28945   0.029   9.359   3.874
 5629SOL    HW128946   0.089   9.303   3.931
 5629SOL    HW228947   0.054   9.455   3.883
 5630SOL     OW28948   0.650   9.852   4.896
 5630SOL    HW128949   0.693   9.897   4.974
 5630SOL    HW228950   0.553   9.836   4.915
 5631SOL     OW28951   1.117   9.408   4.319
 5631SOL    HW128952   1.079   9.500   4.327
 5631SOL    HW228953   1.096   9.355   4.402
 5632SOL     OW28954   0.676   9.295   4.491
 5632SOL    HW128955   0.597   9.269   4.436
 5632SOL    HW228956   0.703   9.218   4.549
 5633SOL     OW28957   0.094   0.225   4.805
 5633SOL    HW128958   0.135   0.206   4.715
 5633SOL    HW228959   9.999   0.193   4.805
 5634SOL     OW28960   0.206   9.249   4.052
 5634SOL    HW128961   0.290   9.295   4.077
 5634SOL    HW228962   0.150   9.234   4.134
 5635SOL     OW28963   1.796   9.448   4.565
 5635SOL    HW128964   1.768   9.475   4.657
 5635SOL    HW228965   1.895   9.441   4.560
 5636SOL     OW28966   1.236   9.851   4.054
 5636SOL    HW128967   1.227   9.917   4.128
 5636SOL    HW228968   1.180   9.879   3.976
 5637SOL     OW28969   0.320   0.105   4.999
 5637SOL    HW128970   0.300   0.031   5.063
 5637SOL    HW228971   0.267   0.186   5.025
 5638SOL     OW28972   0.197   0.115   4.558
 5638SOL    HW128973   0.293   0.126   4.533
 5638SOL    HW228974   0.142   0.107   4.474
 5639SOL     OW28975   0.457   9.643   5.479
 5639SOL    HW128976   0.525   9.610   5.413
 5639SOL    HW228977   0.497   9.717   5.532
 5640SOL     OW28978   0.551   9.997   4.051
 5640SOL    HW128979   0.528   0.045   3.966
 5640SOL    HW228980   0.470   9.995   4.110
 5641SOL     OW28981   1.389   9.504   5.078
 5641SOL    HW128982   1.468   9.467   5.128
 5641SOL    HW228983   1.329   9.429   5.050
 5642SOL     OW28984   0.056   9.257   4.288
 5642SOL    HW128985   9.964   9.224   4.311
 5642SOL    HW228986   0.053   9.355   4.272
 5643SOL     OW28987   1.262   9.320   5.456
 5643SOL    HW128988   1.351   9.289   5.490
 5643SOL    HW228989   1.227   9.393   5.515
 5644SOL     OW28990   1.070   9.765   4.745
 5644SOL    HW128991   1.165   9.791   4.765
 5644SOL    HW228992   1.065   9.666   4.730
 5645SOL     OW28993   1.069   9.315   4.574
 5645SOL    HW128994   1.151   9.364   4.604
 5645SOL    HW228995   1.034   9.259   4.648
 5646SOL     OW28996   1.653   9.645   4.431
 5646SOL    HW128997   1.687   9.729   4.475
 5646SOL    HW228998   1.700   9.566   4.469
 5647SOL     OW28999   0.834   9.377   3.746
 5647SOL    HW129000   0.880   9.302   3.793
 5647SOL    HW229001   0.824   9.455   3.808
 5648SOL     OW29002   0.646   9.929   4.464
 5648SOL    HW129003   0.688   9.878   4.539
 5648SOL    HW229004   0.674   9.889   4.377
 5649SOL     OW29005   0.209   9.729   5.397
 5649SOL    HW129006   0.147   9.654   5.423
 5649SOL    HW229007   0.302   9.706   5.426
 5650SOL     OW29008   0.795   9.827   4.667
 5650SOL    HW129009   0.890   9.806   4.689
 5650SOL    HW229010   0.741   9.832   4.751
 5651SOL     OW29011   0.242   9.957   4.775
 5651SOL    HW129012   0.260   0.018   4.853
 5651SOL    HW229013   0.227   0.011   4.693
 5652SOL     OW29014   0.621   9.579   4.133
 5652SOL    HW129015   0.527   9.544   4.132
 5652SOL    HW229016   0.674   9.528   4.201
 5653SOL     OW29017   1.643   9.258   4.428
 5653SOL    HW129018   1.632   9.280   4.331
 5653SOL    HW229019   1.701   9.327   4.471
 5654SOL     OW29020   1.375   9.647   4.415
 5654SOL    HW129021   1.360   9.640   4.317
 5654SOL    HW229022   1.473   9.653   4.434
 5655SOL     OW29023   1.665   9.867   6.955
 5655SOL    HW129024   1.587   9.821   6.997
 5655SOL    HW229025   1.749   9.839   7.001
 5656SOL     OW29026   0.321   9.411   5.538
 5656SOL    HW129027   0.228   9.430   5.508
 5656SOL    HW229028   0.380   9.488   5.513
 5657SOL     OW29029   1.210   9.309   6.872
 5657SOL    HW129030   1.131   9.260   6.907
 5657SOL    HW229031   1.256   9.254   6.803
 5658SOL     OW29032   0.505   9.236   5.671
 5658SOL    HW129033   0.595   9.279   5.674
 5658SOL    HW229034   0.441   9.297   5.623
 5659SOL     OW29035   0.770   9.814   6.063
 5659SOL    HW129036   0.790   9.889   6.000
 5659SOL    HW229037   0.709   9.749   6.019
 5660SOL     OW29038   1.288   9.769   7.294
 5660SOL    HW129039   1.368   9.751   7.352
 5660SOL    HW229040   1.232   9.687   7.288
 5661SOL     OW29041   0.576   9.480   6.557
 5661SOL    HW129042   0.636   9.559   6.567
 5661SOL    HW229043   0.625   9.406   6.510
 5662SOL     OW29044   1.686   9.553   6.647
 5662SOL    HW129045   1.720   9.647   6.656
 5662SOL    HW229046   1.586   9.555   6.643
 5663SOL     OW29047   1.089   9.579   5.876
 5663SOL    HW129048   1.127   9.671   5.886
 5663SOL    HW229049   1.102   9.528   5.961
 5664SOL     OW29050   0.566   9.849   5.621
 5664SOL    HW129051   0.544   9.946   5.623
 5664SOL    HW229052   0.664   9.836   5.638
 5665SOL     OW29053   1.048   9.941   7.092
 5665SOL    HW129054   1.085   9.853   7.123
 5665SOL    HW229055   1.065   0.010   7.163
 5666SOL     OW29056   1.245   9.521   5.653
 5666SOL    HW129057   1.314   9.457   5.685
 5666SOL    HW229058   1.179   9.538   5.727
 5667SOL     OW29059   0.436   9.718   6.743
 5667SOL    HW129060   0.427   9.620   6.760
 5667SOL    HW229061   0.345   9.760   6.740
 5668SOL     OW29062   1.457   0.024   6.849
 5668SOL    HW129063   1.479   0.121   6.841
 5668SOL    HW229064   1.538   9.974   6.880
 5669SOL     OW29065   0.385   9.489   6.010
 5669SOL    HW129066   0.329   9.525   6.084
 5669SOL    HW229067   0.343   9.513   5.922
 5670SOL     OW29068   1.762   9.814   6.695
 5670SOL    HW129069   1.856   9.846   6.690
 5670SOL    HW229070   1.722   9.842   6.782
 5671SOL     OW29071   0.971   9.673   6.183
 5671SOL    HW129072   1.039   9.730   6.228
 5671SOL    HW229073   0.903   9.730   6.138
 5672SOL     OW29074   1.114   9.558   7.284
 5672SOL    HW129075   1.130   9.550   7.383
 5672SOL    HW229076   1.024   9.520   7.262
 5673SOL     OW29077   1.624   9.874   5.816
 5673SOL    HW129078   1.594   9.842   5.727
 5673SOL    HW229079   1.651   9.796   5.873
 5674SOL     OW29080   0.784   9.284   7.258
 5674SOL    HW129081   0.803   9.190   7.229
 5674SOL    HW229082   0.782   9.289   7.357
 5675SOL     OW29083   1.740   9.854   6.419
 5675SOL    HW129084   1.693   9.936   6.390
 5675SOL    HW229085   1.737   9.847   6.519
 5676SOL     OW29086   1.410   9.195   6.419
 5676SOL    HW129087   1.366   9.285   6.424
 5676SOL    HW229088   1.498   9.204   6.373
 5677SOL     OW29089   1.736   9.430   7.319
 5677SOL    HW129090   1.700   9.457   7.408
 5677SOL    HW229091   1.734   9.331   7.311
 5678SOL     OW29092   0.388   9.441   6.345
 5678SOL    HW129093   0.443   9.464   6.425
 5678SOL    HW229094   0.430   9.364   6.297
 5679SOL     OW29095   0.402   9.441   6.764
 5679SOL    HW129096   0.389   9.343   6.782
 5679SOL    HW229097   0.465   9.452   6.686
 5680SOL     OW29098   1.053   0.260   6.744
 5680SOL    HW129099   1.107   0.214   6.814
 5680SOL    HW229100   1.000   0.192   6.692
 5681SOL     OW29101   1.389   9.646   5.976
 5681SOL    HW129102   1.336   9.719   5.934
 5681SOL    HW229103   1.487   9.669   5.970
 5682SOL     OW29104   0.218   9.828   7.024
 5682SOL    HW129105   0.220   9.736   6.983
 5682SOL    HW229106   0.227   9.820   7.123
 5683SOL     OW29107   0.191   9.575   6.903
 5683SOL    HW129108   0.259   9.517   6.858
 5683SOL    HW229109   0.115   9.591   6.840
 5684SOL     OW29110   0.938   0.026   6.641
 5684SOL    HW129111   0.995   9.948   6.614
 5684SOL    HW229112   0.892   0.005   6.727
 5685SOL     OW29113   1.672   9.658   5.982
 5685SOL    HW129114   1.767   9.632   5.965
 5685SOL    HW229115   1.656   9.660   6.080
 5686SOL     OW29116   0.824   9.569   5.810
 5686SOL    HW129117   0.765   9.557   5.890
 5686SOL    HW229118   0.920   9.567   5.838
 5687SOL     OW29119   0.972   0.168   6.031
 5687SOL    HW129120   0.918   0.112   5.968
 5687SOL    HW229121   0.913   0.206   6.102
 5688SOL     OW29122   0.073   9.467   5.969
 5688SOL    HW129123   0.129   9.507   5.896
 5688SOL    HW229124   0.096   9.511   6.056
 5689SOL     OW29125   0.835   9.971   6.898
 5689SOL    HW129126   0.792   0.057   6.925
 5689SOL    HW229127   0.909   9.949   6.963
 5690SOL     OW29128   0.388   9.795   6.464
 5690SOL    HW129129   0.463   9.808   6.398
 5690SOL    HW229130   0.424   9.750   6.546
 5691SOL     OW29131   0.687   9.249   6.004
 5691SOL    HW129132   0.697   9.197   5.918
 5691SOL    HW229133   0.685   9.346   5.984
 5692SOL     OW29134   1.596   9.517   7.099
 5692SOL    HW129135   1.556   9.609   7.104
 5692SOL    HW229136   1.648   9.500   7.183
 5693SOL     OW29137   1.306   9.452   6.446
 5693SOL    HW129138   1.320   9.517   6.371
 5693SOL    HW229139   1.341   9.492   6.531
 5694SOL     OW29140   1.434   9.337   5.728
 5694SOL    HW129141   1.504   9.267   5.720
 5694SOL    HW229142   1.391   9.331   5.818
 5695SOL     OW29143   1.592   9.235   7.114
 5695SOL    HW129144   1.583   9.195   7.023
 5695SOL    HW229145   1.575   9.334   7.110
 5696SOL     OW29146   0.738   9.555   6.275
 5696SOL    HW129147   0.732   9.466   6.320
 5696SOL    HW229148   0.834   9.577   6.258
 5697SOL     OW29149   1.355   9.861   6.651
 5697SOL    HW129150   1.367   9.914   6.567
 5697SOL    HW229151   1.390   9.913   6.728
 5698SOL     OW29152   1.602   9.271   6.000
 5698SOL    HW129153   1.621   9.222   5.914
 5698SOL    HW229154   1.507   9.303   6.000
 5699SOL     OW29155   1.160   9.823   6.306
 5699SOL    HW129156   1.244   9.770   6.299
 5699SOL    HW229157   1.137   9.837   6.402
 5700SOL     OW29158   1.720   9.811   7.268
 5700SOL    HW129159   1.690   9.904   7.245
 5700SOL    HW229160   1.818   9.812   7.288
 5701SOL     OW29161   1.410   9.592   6.663
 5701SOL    HW129162   1.394   9.690   6.653
 5701SOL    HW229163   1.390   9.564   6.757
 5702SOL     OW29164   1.523   9.719   7.432
 5702SOL    HW129165   1.596   9.749   7.370
 5702SOL    HW229166   1.550   9.632   7.473
 5703SOL     OW29167   1.614   9.546   5.719
 5703SOL    HW129168   1.641   9.569   5.813
 5703SOL    HW229169   1.548   9.472   5.721
 5704SOL     OW29170   0.180   9.529   7.178
 5704SOL    HW129171   0.195   9.539   7.080
 5704SOL    HW229172   0.095   9.479   7.194
 5705SOL     OW29173   0.195   9.568   6.200
 5705SOL    HW129174   0.155   9.646   6.248
 5705SOL    HW229175   0.256   9.519   6.263
 5706SOL     OW29176   0.337   9.804   5.778
 5706SOL    HW129177   0.421   9.823   5.727
 5706SOL    HW229178   0.317   9.881   5.839
 5707SOL     OW29179   1.780   9.466   6.897
 5707SOL    HW129180   1.707   9.488   6.962
 5707SOL    HW229181   1.748   9.485   6.804
 5708SOL     OW29182   0.251   9.549   5.781
 5708SOL    HW129183   0.274   9.502   5.696
 5708SOL    HW229184   0.274   9.646   5.773
 5709SOL     OW29185   0.125   9.783   6.364
 5709SOL    HW129186   0.101   9.880   6.366
 5709SOL    HW229187   0.219   9.771   6.397
 5710SOL     OW29188   1.204   9.965   5.624
 5710SOL    HW129189   1.171   0.034   5.560
 5710SOL    HW229190   1.243   9.888   5.574
 5711SOL     OW29191   0.835   9.806   5.679
 5711SOL    HW129192   0.906   9.795   5.609
 5711SOL    HW229193   0.823   9.719   5.727
 5712SOL     OW29194   1.342   9.379   5.984
 5712SOL    HW129195   1.258   9.366   6.036
 5712SOL    HW229196   1.364   9.476   5.980
 5713SOL     OW29197   1.445   9.748   7.064
 5713SOL    HW129198   1.389   9.776   7.142
 5713SOL    HW229199   1.393   9.686   7.005
 5714SOL     OW29200   0.005   9.334   5.715
 5714SOL    HW129201   0.028   9.236   5.718
 5714SOL    HW229202   0.023   9.375   5.804
 5715SOL     OW29203   0.636   9.904   6.711
 5715SOL    HW129204   0.695   9.923   6.789
 5715SOL    HW229205   0.562   9.844   6.738
 5716SOL     OW29206   1.101   9.441   6.123
 5716SOL    HW129207   1.055   9.527   6.145
 5716SOL    HW229208   1.091   9.377   6.200
 5717SOL     OW29209   0.706   9.309   6.383
 5717SOL    HW129210   0.637   9.261   6.329
 5717SOL    HW229211   0.783   9.248   6.402
 5718SOL     OW29212   0.015   0.156   6.750
 5718SOL    HW129213   0.010   0.123   6.656
 5718SOL    HW229214   9.936   0.123   6.802
 5719SOL     OW29215   0.285   9.223   6.004
 5719SOL    HW129216   0.329   9.312   6.008
 5719SOL    HW229217   0.191   9.230   6.037
 5720SOL     OW29218   1.777   9.447   6.400
 5720SOL    HW129219   1.749   9.474   6.492
 5720SOL    HW229220   1.876   9.440   6.396
 5721SOL     OW29221   1.211   9.834   5.876
 5721SOL    HW129222   1.200   9.896   5.954
 5721SOL    HW229223   1.204   9.885   5.791
 5722SOL     OW29224   0.296   0.040   6.867
 5722SOL    HW129225   0.284   9.962   6.929
 5722SOL    HW229226   0.235   0.114   6.894
 5723SOL     OW29227   0.086   0.056   6.378
 5723SOL    HW129228   0.173   0.100   6.401
 5723SOL    HW229229   0.070   0.065   6.280
 5724SOL     OW29230   0.565   9.603   7.320
 5724SOL    HW129231   0.635   9.590   7.249
 5724SOL    HW229232   0.577   9.693   7.363
 5725SOL     OW29233   0.557   0.005   5.910
 5725SOL    HW129234   0.528   0.050   5.825
 5725SOL    HW229235   0.477   9.990   5.969
 5726SOL     OW29236   1.364   9.523   6.926
 5726SOL    HW129237   1.437   9.489   6.985
 5726SOL    HW229238   1.298   9.449   6.909
 5727SOL     OW29239   0.018   9.230   6.092
 5727SOL    HW129240   9.921   9.211   6.111
 5727SOL    HW229241   0.026   9.321   6.051
 5728SOL     OW29242   1.318   9.363   7.289
 5728SOL    HW129243   1.346   9.357   7.385
 5728SOL    HW229244   1.253   9.438   7.278
 5729SOL     OW29245   1.096   9.809   6.580
 5729SOL    HW129246   1.188   9.825   6.614
 5729SOL    HW229247   1.065   9.718   6.607
 5730SOL     OW29248   1.069   9.322   6.371
 5730SOL    HW129249   1.149   9.365   6.412
 5730SOL    HW229250   1.020   9.269   6.440
 5731SOL     OW29251   1.649   9.650   6.259
 5731SOL    HW129252   1.681   9.731   6.309
 5731SOL    HW229253   1.692   9.569   6.298
 5732SOL     OW29254   0.760   9.338   5.677
 5732SOL    HW129255   0.842   9.281   5.680
 5732SOL    HW229256   0.780   9.428   5.717
 5733SOL     OW29257   0.622   9.806   6.305
 5733SOL    HW129258   0.640   9.708   6.311
 5733SOL    HW229259   0.666   9.843   6.224
 5734SOL     OW29260   0.217   9.774   7.303
 5734SOL    HW129261   0.207   9.681   7.268
 5734SOL    HW229262   0.270   9.773   7.388
 5735SOL     OW29263   0.745   9.696   6.568
 5735SOL    HW129264   0.775   9.726   6.477
 5735SOL    HW229265   0.713   9.775   6.620
 5736SOL     OW29266   0.209   9.858   6.675
 5736SOL    HW129267   0.228   9.938   6.732
 5736SOL    HW229268   0.254   9.868   6.586
 5737SOL     OW29269   0.653   9.536   6.017
 5737SOL    HW129270   0.554   9.522   6.011
 5737SOL    HW229271   0.680   9.541   6.113
 5738SOL     OW29272   1.640   9.240   6.274
 5738SOL    HW129273   1.627   9.260   6.177
 5738SOL    HW229274   1.692   9.314   6.317
 5739SOL     OW29275   1.372   9.646   6.256
 5739SOL    HW129276   1.356   9.640   6.157
 5739SOL    HW229277   1.470   9.654   6.274
 5740SOL     OW29278   1.680   9.869   8.821
 5740SOL    HW129279   1.619   9.800   8.861
 5740SOL    HW229280   1.773   9.853   8.854
 5741SOL     OW29281   0.369   9.428   7.348
 5741SOL    HW129282   0.297   9.455   7.284
 5741SOL    HW229283   0.447   9.489   7.338
 5742SOL     OW29284   1.164   9.349   8.743
 5742SOL    HW129285   1.093   9.298   8.792
 5742SOL    HW229286   1.193   9.296   8.663
 5743SOL     OW29287   0.523   9.271   7.528
 5743SOL    HW129288   0.620   9.295   7.531
 5743SOL    HW229289   0.477   9.327   7.460
 5744SOL     OW29290   0.778   9.807   7.920
 5744SOL    HW129291   0.779   9.884   7.856
 5744SOL    HW229292   0.730   9.730   7.878
 5745SOL     OW29293   1.242   9.757   9.114
 5745SOL    HW129294   1.328   9.745   9.164
 5745SOL    HW229295   1.184   9.676   9.126
 5746SOL     OW29296   0.560   9.520   8.416
 5746SOL    HW129297   0.621   9.598   8.426
 5746SOL    HW229298   0.606   9.447   8.366
 5747SOL     OW29299   1.691   9.554   8.521
 5747SOL    HW129300   1.725   9.648   8.525
 5747SOL    HW229301   1.592   9.555   8.514
 5748SOL     OW29302   1.064   9.561   7.767
 5748SOL    HW129303   1.056   9.635   7.834
 5748SOL    HW229304   1.081   9.475   7.815
 5749SOL     OW29305   0.591   9.843   7.450
 5749SOL    HW129306   0.557   9.937   7.450
 5749SOL    HW229307   0.686   9.842   7.480
 5750SOL     OW29308   1.066   9.936   8.967
 5750SOL    HW129309   1.118   9.857   8.998
 5750SOL    HW229310   1.090   0.016   9.022
 5751SOL     OW29311   1.197   9.533   7.534
 5751SOL    HW129312   1.265   9.461   7.552
 5751SOL    HW229313   1.153   9.558   7.620
 5752SOL     OW29314   0.394   9.734   8.674
 5752SOL    HW129315   0.398   9.634   8.664
 5752SOL    HW229316   0.342   9.773   8.598
 5753SOL     OW29317   1.453   9.981   8.703
 5753SOL    HW129318   1.463   0.079   8.689
 5753SOL    HW229319   1.537   9.943   8.741
 5754SOL     OW29320   0.411   9.487   7.811
 5754SOL    HW129321   0.354   9.525   7.884
 5754SOL    HW229322   0.364   9.495   7.723
 5755SOL     OW29323   1.763   9.821   8.556
 5755SOL    HW129324   1.852   9.866   8.547
 5755SOL    HW229325   1.724   9.841   8.645
 5756SOL     OW29326   1.010   9.688   8.003
 5756SOL    HW129327   1.064   9.746   8.064
 5756SOL    HW229328   0.923   9.733   7.984
 5757SOL     OW29329   1.082   9.547   9.184
 5757SOL    HW129330   1.109   9.557   9.280
 5757SOL    HW229331   0.991   9.506   9.179
 5758SOL     OW29332   1.622   9.847   7.664
 5758SOL    HW129333   1.571   9.810   7.586
 5758SOL    HW229334   1.646   9.773   7.727
 5759SOL     OW29335   0.728   9.273   9.101
 5759SOL    HW129336   0.757   9.181   9.072
 5759SOL    HW229337   0.757   9.288   9.196
 5760SOL     OW29338   1.740   9.858   8.278
 5760SOL    HW129339   1.685   9.934   8.244
 5760SOL    HW229340   1.733   9.853   8.377
 5761SOL     OW29341   1.382   9.236   8.290
 5761SOL    HW129342   1.330   9.322   8.290
 5761SOL    HW229343   1.466   9.248   8.237
 5762SOL     OW29344   1.767   9.447   9.219
 5762SOL    HW129345   1.713   9.499   9.285
 5762SOL    HW229346   1.811   9.370   9.266
 5763SOL     OW29347   0.367   9.477   8.223
 5763SOL    HW129348   0.430   9.497   8.299
 5763SOL    HW229349   0.379   9.382   8.195
 5764SOL     OW29350   0.398   9.450   8.624
 5764SOL    HW129351   0.391   9.350   8.628
 5764SOL    HW229352   0.458   9.476   8.548
 5765SOL     OW29353   1.052   0.274   8.630
 5765SOL    HW129354   1.106   0.196   8.662
 5765SOL    HW229355   0.961   0.271   8.671
 5766SOL     OW29356   1.383   9.664   7.831
 5766SOL    HW129357   1.342   9.740   7.779
 5766SOL    HW229358   1.483   9.671   7.827
 5767SOL     OW29359   0.253   9.876   8.863
 5767SOL    HW129360   0.307   9.818   8.802
 5767SOL    HW229361   0.252   9.836   8.954
 5768SOL     OW29362   0.182   9.507   8.787
 5768SOL    HW129363   0.261   9.482   8.731
 5768SOL    HW229364   0.117   9.560   8.732
 5769SOL     OW29365   0.912   9.978   8.465
 5769SOL    HW129366   0.981   9.907   8.450
 5769SOL    HW229367   0.886   9.979   8.562
 5770SOL     OW29368   1.664   9.651   7.851
 5770SOL    HW129369   1.749   9.603   7.832
 5770SOL    HW229370   1.650   9.658   7.949
 5771SOL     OW29371   0.836   9.579   7.629
 5771SOL    HW129372   0.765   9.570   7.699
 5771SOL    HW229373   0.926   9.571   7.672
 5772SOL     OW29374   0.958   0.155   7.878
 5772SOL    HW129375   0.894   0.097   7.828
 5772SOL    HW229376   0.910   0.198   7.955
 5773SOL     OW29377   0.097   9.447   7.808
 5773SOL    HW129378   0.137   9.486   7.725
 5773SOL    HW229379   0.132   9.497   7.887
 5774SOL     OW29380   0.848   9.965   8.743
 5774SOL    HW129381   0.830   0.062   8.760
 5774SOL    HW229382   0.913   9.931   8.811
 5775SOL     OW29383   0.356   9.764   8.236
 5775SOL    HW129384   0.449   9.782   8.204
 5775SOL    HW229385   0.342   9.665   8.244
 5776SOL     OW29386   0.759   9.269   7.825
 5776SOL    HW129387   0.757   9.247   7.727
 5776SOL    HW229388   0.732   9.364   7.838
 5777SOL     OW29389   1.658   9.500   8.965
 5777SOL    HW129390   1.595   9.577   8.971
 5777SOL    HW229391   1.686   9.472   9.057
 5778SOL     OW29392   1.269   9.488   8.310
 5778SOL    HW129393   1.295   9.544   8.232
 5778SOL    HW229394   1.323   9.515   8.390
 5779SOL     OW29395   1.374   9.321   7.579
 5779SOL    HW129396   1.367   9.223   7.565
 5779SOL    HW229397   1.355   9.343   7.675
 5780SOL     OW29398   0.764   9.534   8.105
 5780SOL    HW129399   0.727   9.458   8.159
 5780SOL    HW229400   0.863   9.540   8.120
 5781SOL     OW29401   1.343   9.839   8.501
 5781SOL    HW129402   1.356   9.897   8.421
 5781SOL    HW229403   1.382   9.884   8.581
 5782SOL     OW29404   1.596   9.320   7.849
 5782SOL    HW129405   1.619   9.264   7.770
 5782SOL    HW229406   1.498   9.341   7.848
 5783SOL     OW29407   1.161   9.834   8.170
 5783SOL    HW129408   1.248   9.786   8.159
 5783SOL    HW229409   1.131   9.827   8.265
 5784SOL     OW29410   1.716   9.863   9.201
 5784SOL    HW129411   1.694   9.937   9.138
 5784SOL    HW229412   1.815   9.845   9.197
 5785SOL     OW29413   1.417   9.578   8.522
 5785SOL    HW129414   1.393   9.675   8.515
 5785SOL    HW229415   1.402   9.548   8.616
 5786SOL     OW29416   1.484   9.721   9.231
 5786SOL    HW129417   1.564   9.775   9.205
 5786SOL    HW229418   1.509   9.658   9.304
 5787SOL     OW29419   1.602   9.486   7.559
 5787SOL    HW129420   1.643   9.492   7.650
 5787SOL    HW229421   1.526   9.421   7.561
 5788SOL     OW29422   0.154   9.458   9.052
 5788SOL    HW129423   0.165   9.474   8.954
 5788SOL    HW229424   0.082   9.390   9.066
 5789SOL     OW29425   0.238   9.578   8.001
 5789SOL    HW129426   0.209   9.672   8.018
 5789SOL    HW229427   0.276   9.539   8.085
 5790SOL     OW29428   0.332   9.782   7.559
 5790SOL    HW129429   0.428   9.801   7.537
 5790SOL    HW229430   0.305   9.836   7.639
 5791SOL     OW29431   1.809   9.439   8.747
 5791SOL    HW129432   1.747   9.457   8.823
 5791SOL    HW229433   1.767   9.472   8.662
 5792SOL     OW29434   0.251   9.524   7.581
 5792SOL    HW129435   0.293   9.478   7.504
 5792SOL    HW229436   0.271   9.622   7.577
 5793SOL     OW29437   0.172   9.841   8.045
 5793SOL    HW129438   0.110   9.918   8.057
 5793SOL    HW229439   0.231   9.833   8.125
 5794SOL     OW29440   1.115   9.911   7.456
 5794SOL    HW129441   1.102   9.998   7.408
 5794SOL    HW229442   1.180   9.855   7.406
 5795SOL     OW29443   0.857   9.835   7.532
 5795SOL    HW129444   0.950   9.859   7.505
 5795SOL    HW229445   0.853   9.739   7.558
 5796SOL     OW29446   1.330   9.399   7.836
 5796SOL    HW129447   1.260   9.381   7.906
 5796SOL    HW229448   1.348   9.497   7.831
 5797SOL     OW29449   1.477   9.711   8.919
 5797SOL    HW129450   1.409   9.742   8.985
 5797SOL    HW229451   1.437   9.641   8.860
 5798SOL     OW29452   0.064   9.324   7.495
 5798SOL    HW129453   0.120   9.245   7.522
 5798SOL    HW229454   0.105   9.408   7.532
 5799SOL     OW29455   0.610   9.906   8.600
 5799SOL    HW129456   0.682   9.922   8.668
 5799SOL    HW229457   0.535   9.857   8.643
 5800SOL     OW29458   1.113   9.427   8.008
 5800SOL    HW129459   1.086   9.523   8.009
 5800SOL    HW229460   1.077   9.381   8.089
 5801SOL     OW29461   0.668   9.334   8.253
 5801SOL    HW129462   0.596   9.278   8.212
 5801SOL    HW229463   0.737   9.275   8.295
 5802SOL     OW29464   0.085   0.169   8.555
 5802SOL    HW129465   0.097   0.162   8.456
 5802SOL    HW229466   9.997   0.129   8.581
 5803SOL     OW29467   0.358   9.222   7.885
 5803SOL    HW129468   0.387   9.312   7.852
 5803SOL    HW229469   0.259   9.214   7.873
 5804SOL     OW29470   1.774   9.449   8.276
 5804SOL    HW129471   1.746   9.478   8.367
 5804SOL    HW229472   1.873   9.436   8.274
 5805SOL     OW29473   1.273   9.879   7.696
 5805SOL    HW129474   1.276   9.965   7.748
 5805SOL    HW229475   1.213   9.890   7.617
 5806SOL     OW29476   0.313   0.086   8.679
 5806SOL    HW129477   0.296   0.021   8.753
 5806SOL    HW229478   0.225   0.115   8.640
 5807SOL     OW29479   0.124   0.127   8.277
 5807SOL    HW129480   0.222   0.147   8.278
 5807SOL    HW229481   0.094   0.114   8.182
 5808SOL     OW29482   0.514   9.629   9.145
 5808SOL    HW129483   0.583   9.598   9.080
 5808SOL    HW229484   0.552   9.702   9.201
 5809SOL     OW29485   0.513   9.986   7.730
 5809SOL    HW129486   0.495   0.034   7.644
 5809SOL    HW229487   0.427   9.964   7.775
 5810SOL     OW29488   1.389   9.492   8.782
 5810SOL    HW129489   1.452   9.431   8.829
 5810SOL    HW229490   1.299   9.448   8.774
 5811SOL     OW29491   0.092   9.179   7.830
 5811SOL    HW129492   0.029   9.138   7.764
 5811SOL    HW229493   0.079   9.278   7.832
 5812SOL     OW29494   1.295   9.368   9.159
 5812SOL    HW129495   1.338   9.368   9.249
 5812SOL    HW229496   1.222   9.436   9.157
 5813SOL     OW29497   1.088   9.771   8.431
 5813SOL    HW129498   1.179   9.793   8.467
 5813SOL    HW229499   1.071   9.673   8.443
 5814SOL     OW29500   1.008   9.397   8.261
 5814SOL    HW129501   1.097   9.422   8.298
 5814SOL    HW229502   0.961   9.337   8.325
 5815SOL     OW29503   1.646   9.649   8.129
 5815SOL    HW129504   1.680   9.731   8.173
 5815SOL    HW229505   1.689   9.568   8.169
 5816SOL     OW29506   0.791   9.323   7.531
 5816SOL    HW129507   0.872   9.264   7.535
 5816SOL    HW229508   0.817   9.416   7.557
 5817SOL     OW29509   0.610   9.768   8.139
 5817SOL    HW129510   0.653   9.679   8.157
 5817SOL    HW229511   0.662   9.817   8.069
 5818SOL     OW29512   0.252   9.723   9.101
 5818SOL    HW129513   0.201   9.638   9.086
 5818SOL    HW229514   0.348   9.701   9.120
 5819SOL     OW29515   0.736   9.724   8.439
 5819SOL    HW129516   0.812   9.767   8.391
 5819SOL    HW229517   0.687   9.793   8.492
 5820SOL     OW29518   0.262   9.858   8.473
 5820SOL    HW129519   0.283   9.953   8.495
 5820SOL    HW229520   0.299   9.835   8.383
 5821SOL     OW29521   0.675   9.548   7.848
 5821SOL    HW129522   0.578   9.526   7.838
 5821SOL    HW229523   0.701   9.541   7.944
 5822SOL     OW29524   1.602   9.288   8.128
 5822SOL    HW129525   1.609   9.311   8.031
 5822SOL    HW229526   1.669   9.341   8.180
 5823SOL     OW29527   1.369   9.657   8.111
 5823SOL    HW129528   1.355   9.659   8.012
 5823SOL    HW229529   1.467   9.656   8.130
 5824SOL     OW29530   0.366   9.411   9.216
 5824SOL    HW129531   0.285   9.421   9.160
 5824SOL    HW229532   0.431   9.485   9.195
 5825SOL     OW29533   0.539   9.262   9.387
 5825SOL    HW129534   0.633   9.293   9.382
 5825SOL    HW229535   0.482   9.318   9.327
 5826SOL     OW29536   0.707   9.841   9.759
 5826SOL    HW129537   0.720   9.927   9.710
 5826SOL    HW229538   0.667   9.773   9.697
 5827SOL     OW29539   1.067   9.577   9.677
 5827SOL    HW129540   1.032   9.650   9.737
 5827SOL    HW229541   1.096   9.499   9.733
 5828SOL     OW29542   0.605   9.834   9.301
 5828SOL    HW129543   0.577   9.929   9.283
 5828SOL    HW229544   0.699   9.833   9.334
 5829SOL     OW29545   1.186   9.568   9.429
 5829SOL    HW129546   1.272   9.517   9.435
 5829SOL    HW229547   1.148   9.580   9.521
 5830SOL     OW29548   0.391   9.462   9.692
 5830SOL    HW129549   0.367   9.520   9.770
 5830SOL    HW229550   0.344   9.495   9.610
 5831SOL     OW29551   0.952   9.748   9.854
 5831SOL    HW129552   1.009   9.798   9.920
 5831SOL    HW229553   0.870   9.802   9.833
 5832SOL     OW29554   1.665   9.877   9.480
 5832SOL    HW129555   1.676   9.847   9.386
 5832SOL    HW229556   1.680   9.800   9.542
 5833SOL     OW29557   1.400   9.694   9.637
 5833SOL    HW129558   1.366   9.769   9.581
 5833SOL    HW229559   1.500   9.701   9.646
 5834SOL     OW29560   1.678   9.677   9.681
 5834SOL    HW129561   1.775   9.651   9.677
 5834SOL    HW229562   1.651   9.691   9.776
 5835SOL     OW29563   0.857   9.565   9.503
 5835SOL    HW129564   0.778   9.537   9.558
 5835SOL    HW229565   0.939   9.563   9.559
 5836SOL     OW29566   0.905   0.195   9.754
 5836SOL    HW129567   0.864   0.129   9.691
 5836SOL    HW229568   0.879   0.172   9.847
 5837SOL     OW29569   0.032   9.619   9.566
 5837SOL    HW129570   0.116   9.586   9.522
 5837SOL    HW229571   0.002   9.552   9.634
 5838SOL     OW29572   0.804   9.235   9.670
 5838SOL    HW129573   0.778   9.172   9.596
 5838SOL    HW229574   0.749   9.318   9.664
 5839SOL     OW29575   1.410   9.364   9.419
 5839SOL    HW129576   1.469   9.284   9.410
 5839SOL    HW229577   1.377   9.371   9.514
 5840SOL     OW29578   0.771   9.547   9.911
 5840SOL    HW129579   0.795   9.486   9.986
 5840SOL    HW229580   0.847   9.609   9.893
 5841SOL     OW29581   1.577   9.261   9.694
 5841SOL    HW129582   1.583   9.218   9.604
 5841SOL    HW229583   1.496   9.320   9.698
 5842SOL     OW29584   1.607   9.555   9.422
 5842SOL    HW129585   1.632   9.579   9.516
 5842SOL    HW229586   1.535   9.485   9.424
 5843SOL     OW29587   0.388   9.763   9.467
 5843SOL    HW129588   0.466   9.791   9.411
 5843SOL    HW229589   0.354   9.841   9.519
 5844SOL     OW29590   0.263   9.528   9.451
 5844SOL    HW129591   0.294   9.477   9.371
 5844SOL    HW229592   0.307   9.617   9.453
 5845SOL     OW29593   0.143   9.772   0.005
 5845SOL    HW129594   0.131   9.866   9.973
 5845SOL    HW229595   0.174   9.773   0.100
 5846SOL     OW29596   1.106   9.917   9.304
 5846SOL    HW129597   1.099   0.004   9.256
 5846SOL    HW229598   1.156   9.852   9.248
 5847SOL     OW29599   0.863   9.824   9.406
 5847SOL    HW129600   0.953   9.850   9.371
 5847SOL    HW229601   0.864   9.728   9.435
 5848SOL     OW29602   1.357   9.424   9.677
 5848SOL    HW129603   1.285   9.400   9.743
 5848SOL    HW229604   1.366   9.523   9.672
 5849SOL     OW29605   0.073   9.273   9.400
 5849SOL    HW129606   0.155   9.221   9.426
 5849SOL    HW229607   0.082   9.367   9.434
 5850SOL     OW29608   1.151   9.382   9.849
 5850SOL    HW129609   1.165   9.422   9.940
 5850SOL    HW229610   1.091   9.303   9.857
 5851SOL     OW29611   0.205   9.259   9.692
 5851SOL    HW129612   0.278   9.324   9.711
 5851SOL    HW229613   0.117   9.299   9.719
 5852SOL     OW29614   1.796   9.438   9.982
 5852SOL    HW129615   1.741   9.483   0.052
 5852SOL    HW229616   1.891   9.433   0.011
 5853SOL     OW29617   1.312   9.922   9.502
 5853SOL    HW129618   1.305   9.995   9.571
 5853SOL    HW229619   1.226   9.916   9.452
 5854SOL     OW29620   0.525   0.035   9.551
 5854SOL    HW129621   0.515   0.063   9.455
 5854SOL    HW229622   0.434   0.021   9.591
 5855SOL     OW29623   9.968   9.418   9.746
 5855SOL    HW129624   9.872   9.414   9.721
 5855SOL    HW229625   9.977   9.459   9.837
 5856SOL     OW29626   1.625   9.728   9.954
 5856SOL    HW129627   1.612   9.824   9.979
 5856SOL    HW229628   1.616   9.671   0.035
 5857SOL     OW29629   0.809   9.335   9.353
 5857SOL    HW129630   0.886   9.271   9.356
 5857SOL    HW229631   0.833   9.418   9.405
 5858SOL     OW29632   0.575   9.738   9.975
 5858SOL    HW129633   0.633   9.658   9.989
 5858SOL    HW229634   0.615   9.796   9.904
 5859SOL     OW29635   0.664   9.477   9.672
 5859SOL    HW129636   0.565   9.465   9.675
 5859SOL    HW229637   0.698   9.499   9.763
 5860SOL     OW29638   1.654   9.209   9.954
 5860SOL    HW129639   1.607   9.213   9.866
 5860SOL    HW229640   1.708   9.292   9.967
 5861SOL     OW29641   1.337   9.751   9.905
 5861SOL    HW129642   1.333   9.731   9.807
 5861SOL    HW229643   1.428   9.728   9.940
 5862SOL     OW29644   2.917   1.436   0.745
 5862SOL    HW129645   3.011   1.466   0.754
 5862SOL    HW229646   2.881   1.464   0.655
 5863SOL     OW29647   3.482   1.257   0.552
 5863SOL    HW129648   3.494   1.330   0.618
 5863SOL    HW229649   3.572   1.221   0.525
 5864SOL     OW29650   3.480   0.668   1.405
 5864SOL    HW129651   3.412   0.626   1.466
 5864SOL    HW229652   3.539   0.729   1.458
 5865SOL     OW29653   2.152   0.267   0.030
 5865SOL    HW129654   2.106   0.179   0.041
 5865SOL    HW229655   2.158   0.290   9.933
 5866SOL     OW29656   3.169   1.527   0.798
 5866SOL    HW129657   3.167   1.627   0.810
 5866SOL    HW229658   3.263   1.499   0.776
 5867SOL     OW29659   3.074   0.074   1.397
 5867SOL    HW129660   3.004   0.050   1.330
 5867SOL    HW229661   3.163   0.042   1.365
 5868SOL     OW29662   2.418   1.471   0.420
 5868SOL    HW129663   2.366   1.494   0.503
 5868SOL    HW229664   2.496   1.415   0.444
 5869SOL     OW29665   2.426   0.229   0.054
 5869SOL    HW129666   2.440   0.135   0.086
 5869SOL    HW229667   2.328   0.250   0.055
 5870SOL     OW29668   3.432   1.064   1.512
 5870SOL    HW129669   3.337   1.093   1.502
 5870SOL    HW229670   3.484   1.092   1.431
 5871SOL     OW29671   3.289   1.057   1.217
 5871SOL    HW129672   3.238   1.094   1.295
 5871SOL    HW229673   3.384   1.088   1.222
 5872SOL     OW29674   2.825   1.391   1.492
 5872SOL    HW129675   2.751   1.455   1.470
 5872SOL    HW229676   2.808   1.304   1.445
 5873SOL     OW29677   2.335   1.201   0.702
 5873SOL    HW129678   2.279   1.163   0.776
 5873SOL    HW229679   2.431   1.177   0.717
 5874SOL     OW29680   2.568   0.633   0.623
 5874SOL    HW129681   2.602   0.707   0.564
 5874SOL    HW229682   2.498   0.581   0.573
 5875SOL     OW29683   3.149   0.540   1.804
 5875SOL    HW129684   3.247   0.537   1.821
 5875SOL    HW229685   3.106   0.461   1.847
 5876SOL     OW29686   2.291   1.406   0.186
 5876SOL    HW129687   2.317   1.469   0.112
 5876SOL    HW229688   2.336   1.434   0.271
 5877SOL     OW29689   2.422   0.307   1.039
 5877SOL    HW129690   2.471   0.394   1.041
 5877SOL    HW229691   2.486   0.234   1.016
 5878SOL     OW29692   2.197   0.777   0.550
 5878SOL    HW129693   2.235   0.800   0.639
 5878SOL    HW229694   2.101   0.752   0.560
 5879SOL     OW29695   2.625   1.698   0.609
 5879SOL    HW129696   2.695   1.634   0.577
 5879SOL    HW229697   2.601   1.762   0.536
 5880SOL     OW29698   3.646   1.545   0.313
 5880SOL    HW129699   3.743   1.554   0.337
 5880SOL    HW229700   3.607   1.635   0.299
 5881SOL     OW29701   3.504   0.345   1.152
 5881SOL    HW129702   3.548   0.435   1.157
 5881SOL    HW229703   3.407   0.356   1.131
 5882SOL     OW29704   2.026   1.010   1.585
 5882SOL    HW129705   2.119   1.042   1.604
 5882SOL    HW229706   1.985   0.976   1.669
 5883SOL     OW29707   2.313   0.683   0.102
 5883SOL    HW129708   2.326   0.777   0.071
 5883SOL    HW229709   2.332   0.620   0.027
 5884SOL     OW29710   2.481   1.596   0.809
 5884SOL    HW129711   2.537   1.644   0.741
 5884SOL    HW229712   2.411   1.542   0.763
 5885SOL     OW29713   2.805   0.564   1.541
 5885SOL    HW129714   2.825   0.487   1.601
 5885SOL    HW229715   2.890   0.597   1.499
 5886SOL     OW29716   3.439   1.444   0.775
 5886SOL    HW129717   3.469   1.475   0.865
 5886SOL    HW229718   3.482   1.501   0.704
 5887SOL     OW29719   2.184   1.238   0.466
 5887SOL    HW129720   2.235   1.222   0.551
 5887SOL    HW229721   2.233   1.195   0.390
 5888SOL     OW29722   3.056   0.295   0.127
 5888SOL    HW129723   3.118   0.237   0.180
 5888SOL    HW229724   3.061   0.389   0.162
 5889SOL     OW29725   2.074   0.499   1.284
 5889SOL    HW129726   2.118   0.429   1.228
 5889SOL    HW229727   2.047   0.576   1.226
 5890SOL     OW29728   3.279   0.786   1.260
 5890SOL    HW129729   3.287   0.886   1.252
 5890SOL    HW229730   3.359   0.751   1.309
 5891SOL     OW29731   2.241   0.209   0.468
 5891SOL    HW129732   2.208   0.229   0.560
 5891SOL    HW229733   2.180   0.250   0.401
 5892SOL     OW29734   3.619   0.587   1.185
 5892SOL    HW129735   3.707   0.634   1.182
 5892SOL    HW229736   3.568   0.616   1.266
 5893SOL     OW29737   2.762   0.432   0.666
 5893SOL    HW129738   2.843   0.468   0.713
 5893SOL    HW229739   2.702   0.508   0.640
 5894SOL     OW29740   3.053   1.013   0.186
 5894SOL    HW129741   3.085   0.937   0.243
 5894SOL    HW229742   2.956   1.029   0.202
 5895SOL     OW29743   2.859   0.350   1.713
 5895SOL    HW129744   2.911   0.347   1.798
 5895SOL    HW229745   2.780   0.288   1.720
 5896SOL     OW29746   3.588   0.682   0.399
 5896SOL    HW129747   3.545   0.593   0.412
 5896SOL    HW229748   3.657   0.696   0.470
 5897SOL     OW29749   2.858   1.818   0.109
 5897SOL    HW129750   2.844   1.782   0.017
 5897SOL    HW229751   2.886   1.744   0.170
 5898SOL     OW29752   2.660   0.147   1.711
 5898SOL    HW129753   2.690   0.055   1.686
 5898SOL    HW229754   2.651   0.153   1.811
 5899SOL     OW29755   3.575   0.660   0.922
 5899SOL    HW129756   3.545   0.755   0.923
 5899SOL    HW229757   3.583   0.627   1.016
 5900SOL     OW29758   2.942   1.335   1.743
 5900SOL    HW129759   2.990   1.250   1.725
 5900SOL    HW229760   2.891   1.363   1.662
 5901SOL     OW29761   2.520   1.151   1.743
 5901SOL    HW129762   2.500   1.245   1.772
 5901SOL    HW229763   2.560   1.101   1.820
 5902SOL     OW29764   3.242   0.029   0.929
 5902SOL    HW129765   3.186   0.112   0.925
 5902SOL    HW229766   3.326   0.043   0.877
 5903SOL     OW29767   3.591   0.248   1.814
 5903SOL    HW129768   3.556   0.277   1.903
 5903SOL    HW229769   3.580   0.149   1.804
 5904SOL     OW29770   1.936   0.716   0.607
 5904SOL    HW129771   1.936   0.647   0.680
 5904SOL    HW229772   1.903   0.803   0.644
 5905SOL     OW29773   2.214   0.182   0.843
 5905SOL    HW129774   2.293   0.219   0.891
 5905SOL    HW229775   2.211   0.083   0.854
 5906SOL     OW29776   2.182   0.277   1.159
 5906SOL    HW129777   2.177   0.205   1.228
 5906SOL    HW229778   2.273   0.280   1.120
 5907SOL     OW29779   2.984   0.786   0.921
 5907SOL    HW129780   2.899   0.839   0.920
 5907SOL    HW229781   2.972   0.703   0.866
 5908SOL     OW29782   2.087   1.500   0.396
 5908SOL    HW129783   2.132   1.411   0.406
 5908SOL    HW229784   2.146   1.562   0.345
 5909SOL     OW29785   3.299   1.428   1.242
 5909SOL    HW129786   3.248   1.413   1.158
 5909SOL    HW229787   3.236   1.430   1.320
 5910SOL     OW29788   2.029   1.556   0.654
 5910SOL    HW129789   1.931   1.553   0.673
 5910SOL    HW229790   2.045   1.537   0.558
 5911SOL     OW29791   3.568   1.408   1.262
 5911SOL    HW129792   3.600   1.430   1.354
 5911SOL    HW229793   3.468   1.416   1.259
 5912SOL     OW29794   2.346   0.952   0.042
 5912SOL    HW129795   2.313   0.998   9.959
 5912SOL    HW229796   2.333   1.012   0.121
 5913SOL     OW29797   2.790   1.164   1.333
 5913SOL    HW129798   2.884   1.137   1.313
 5913SOL    HW229799   2.746   1.196   1.249
 5914SOL     OW29800   1.930   0.773   0.224
 5914SOL    HW129801   2.014   0.728   0.254
 5914SOL    HW229802   1.856   0.752   0.288
 5915SOL     OW29803   3.400   0.882   0.390
 5915SOL    HW129804   3.468   0.809   0.395
 5915SOL    HW229805   3.422   0.943   0.313
 5916SOL     OW29806   2.657   1.772   1.035
 5916SOL    HW129807   2.696   1.689   0.994
 5916SOL    HW229808   2.579   1.747   1.091
 5917SOL     OW29809   2.619   0.937   0.102
 5917SOL    HW129810   2.669   0.855   0.130
 5917SOL    HW229811   2.525   0.913   0.080
 5918SOL     OW29812   3.209   0.440   0.453
 5918SOL    HW129813   3.158   0.484   0.378
 5918SOL    HW229814   3.307   0.452   0.437
 5919SOL     OW29815   2.183   0.652   1.485
 5919SOL    HW129816   2.147   0.587   1.418
 5919SOL    HW229817   2.140   0.637   1.573
 5920SOL     OW29818   1.984   0.299   1.449
 5920SOL    HW129819   2.011   0.379   1.395
 5920SOL    HW229820   1.890   0.274   1.428
 5921SOL     OW29821   3.495   0.428   0.468
 5921SOL    HW129822   3.586   0.390   0.453
 5921SOL    HW229823   3.480   0.441   0.566
 5922SOL     OW29824   2.732   1.540   0.921
 5922SOL    HW129825   2.802   1.503   0.860
 5922SOL    HW229826   2.644   1.540   0.874
 5923SOL     OW29827   2.836   1.301   0.201
 5923SOL    HW129828   2.883   1.281   0.287
 5923SOL    HW229829   2.899   1.345   0.137
 5924SOL     OW29830   3.559   1.584   0.579
 5924SOL    HW129831   3.499   1.663   0.568
 5924SOL    HW229832   3.587   1.551   0.489
 5925SOL     OW29833   3.021   0.905   0.573
 5925SOL    HW129834   3.078   0.935   0.650
 5925SOL    HW229835   2.932   0.949   0.578
 5926SOL     OW29836   2.679   1.661   1.645
 5926SOL    HW129837   2.637   1.603   1.575
 5926SOL    HW229838   2.686   1.609   1.731
 5927SOL     OW29839   3.165   0.959   0.804
 5927SOL    HW129840   3.116   0.883   0.846
 5927SOL    HW229841   3.158   1.040   0.862
 5928SOL     OW29842   2.193   1.095   0.910
 5928SOL    HW129843   2.097   1.123   0.914
 5928SOL    HW229844   2.227   1.078   1.002
 5929SOL     OW29845   2.773   1.022   0.569
 5929SOL    HW129846   2.726   0.952   0.517
 5929SOL    HW229847   2.715   1.052   0.645
 5930SOL     OW29848   3.112   1.422   1.446
 5930SOL    HW129849   3.150   1.502   1.492
 5930SOL    HW229850   3.012   1.426   1.448
 5931SOL     OW29851   1.882   0.321   0.465
 5931SOL    HW129852   1.947   0.341   0.391
 5931SOL    HW229853   1.932   0.314   0.551
 5932SOL     OW29854   3.474   1.769   0.255
 5932SOL    HW129855   3.531   1.847   0.228
 5932SOL    HW229856   3.424   1.736   0.175
 5933SOL     OW29857   1.929   1.833   1.400
 5933SOL    HW129858   1.932   1.932   1.416
 5933SOL    HW229859   1.914   1.785   1.486
 5934SOL     OW29860   2.638   0.822   0.436
 5934SOL    HW129861   2.545   0.855   0.417
 5934SOL    HW229862   2.676   0.782   0.353
 5935SOL     OW29863   2.148   0.487   0.964
 5935SOL    HW129864   2.221   0.495   0.895
 5935SOL    HW229865   2.164   0.405   1.019
 5936SOL     OW29866   2.213   1.735   0.285
 5936SOL    HW129867   2.281   1.789   0.235
 5936SOL    HW229868   2.170   1.793   0.354
 5937SOL     OW29869   3.168   1.732   1.120
 5937SOL    HW129870   3.168   1.759   1.024
 5937SOL    HW229871   3.250   1.680   1.141
 5938SOL     OW29872   1.926   1.174   0.978
 5938SOL    HW129873   1.844   1.183   0.922
 5938SOL    HW229874   1.912   1.104   1.048
 5939SOL     OW29875   1.916   1.144   0.504
 5939SOL    HW129876   2.006   1.188   0.505
 5939SOL    HW229877   1.897   1.110   0.412
 5940SOL     OW29878   3.429   0.324   1.600
 5940SOL    HW129879   3.387   0.415   1.599
 5940SOL    HW229880   3.489   0.315   1.679
 5941SOL     OW29881   3.117   0.274   0.929
 5941SOL    HW129882   3.149   0.325   0.849
 5941SOL    HW229883   3.152   0.317   1.012
 5942SOL     OW29884   3.219   0.124   0.271
 5942SOL    HW129885   3.179   0.034   0.252
 5942SOL    HW229886   3.204   0.148   0.367
 5943SOL     OW29887   3.469   0.045   1.646
 5943SOL    HW129888   3.475   9.999   1.557
 5943SOL    HW229889   3.438   0.139   1.633
 5944SOL     OW29890   2.541   0.294   0.742
 5944SOL    HW129891   2.554   0.226   0.815
 5944SOL    HW229892   2.627   0.342   0.725
 5945SOL     OW29893   3.085   0.653   1.140
 5945SOL    HW129894   3.051   0.706   1.062
 5945SOL    HW229895   3.162   0.702   1.183
 5946SOL     OW29896   3.409   0.026   0.531
 5946SOL    HW129897   3.390   9.935   0.494
 5946SOL    HW229898   3.324   0.080   0.534
 5947SOL     OW29899   2.433   1.417   1.805
 5947SOL    HW129900   2.387   1.476   1.739
 5947SOL    HW229901   2.521   1.456   1.830
 5948SOL     OW29902   2.272   1.116   1.640
 5948SOL    HW129903   2.369   1.114   1.668
 5948SOL    HW229904   2.253   1.203   1.594
 5949SOL     OW29905   1.999   1.396   1.135
 5949SOL    HW129906   1.983   1.323   1.068
 5949SOL    HW229907   1.914   1.415   1.184
 5950SOL     OW29908   2.965   0.538   0.811
 5950SOL    HW129909   3.057   0.506   0.786
 5950SOL    HW229910   2.940   0.498   0.900
 5951SOL     OW29911   3.635   0.648   1.724
 5951SOL    HW129912   3.631   0.724   1.660
 5951SOL    HW229913   3.730   0.622   1.739
 5952SOL     OW29914   3.225   0.405   1.148
 5952SOL    HW129915   3.183   0.495   1.139
 5952SOL    HW229916   3.215   0.373   1.243
 5953SOL     OW29917   3.417   0.520   1.833
 5953SOL    HW129918   3.498   0.565   1.796
 5953SOL    HW229919   3.443   0.460   1.908
 5954SOL     OW29920   3.139   0.812   0.352
 5954SOL    HW129921   3.091   0.837   0.435
 5954SOL    HW229922   3.237   0.832   0.362
 5955SOL     OW29923   3.406   0.964   0.661
 5955SOL    HW129924   3.394   0.946   0.564
 5955SOL    HW229925   3.318   0.954   0.708
 5956SOL     OW29926   3.625   0.859   1.535
 5956SOL    HW129927   3.556   0.930   1.524
 5956SOL    HW229928   3.716   0.901   1.544
 5957SOL     OW29929   3.444   0.284   0.210
 5957SOL    HW129930   3.457   0.335   0.295
 5957SOL    HW229931   3.369   0.219   0.221
 5958SOL     OW29932   2.577   1.542   1.422
 5958SOL    HW129933   2.513   1.619   1.424
 5958SOL    HW229934   2.554   1.482   1.345
 5959SOL     OW29935   1.983   0.329   1.718
 5959SOL    HW129936   1.992   0.316   1.619
 5959SOL    HW229937   1.892   0.300   1.747
 5960SOL     OW29938   1.904   1.709   1.648
 5960SOL    HW129939   1.988   1.725   1.700
 5960SOL    HW229940   1.825   1.716   1.709
 5961SOL     OW29941   2.020   0.312   0.698
 5961SOL    HW129942   1.995   0.398   0.742
 5961SOL    HW229943   2.089   0.265   0.754
 5962SOL     OW29944   3.231   1.637   1.570
 5962SOL    HW129945   3.142   1.678   1.591
 5962SOL    HW229946   3.300   1.709   1.566
 5963SOL     OW29947   2.152   0.635   0.311
 5963SOL    HW129948   2.219   0.653   0.238
 5963SOL    HW229949   2.184   0.677   0.396
 5964SOL     OW29950   3.582   0.237   1.389
 5964SOL    HW129951   3.527   0.274   1.463
 5964SOL    HW229952   3.550   0.275   1.302
 5965SOL     OW29953   2.194   1.772   0.695
 5965SOL    HW129954   2.128   1.697   0.698
 5965SOL    HW229955   2.287   1.735   0.703
 5966SOL     OW29956   2.234   1.310   1.263
 5966SOL    HW129957   2.227   1.329   1.361
 5966SOL    HW229958   2.152   1.344   1.217
 5967SOL     OW29959   2.994   1.595   1.839
 5967SOL    HW129960   2.974   1.502   1.810
 5967SOL    HW229961   2.993   1.656   1.760
 5968SOL     OW29962   2.614   1.296   0.509
 5968SOL    HW129963   2.621   1.229   0.435
 5968SOL    HW229964   2.617   1.250   0.597
 5969SOL     OW29965   2.275   0.849   0.806
 5969SOL    HW129966   2.256   0.940   0.843
 5969SOL    HW229967   2.356   0.811   0.850
 5970SOL     OW29968   2.070   0.375   0.272
 5970SOL    HW129969   2.107   0.342   0.186
 5970SOL    HW229970   2.104   0.468   0.288
 5971SOL     OW29971   1.925   0.548   0.823
 5971SOL    HW129972   1.854   0.600   0.870
 5971SOL    HW229973   2.004   0.538   0.883
 5972SOL     OW29974   2.356   1.148   0.251
 5972SOL    HW129975   2.454   1.147   0.269
 5972SOL    HW229976   2.329   1.239   0.220
 5973SOL     OW29977   2.992   0.640   9.978
 5973SOL    HW129978   2.984   0.724   9.925
 5973SOL    HW229979   3.072   0.588   9.946
 5974SOL     OW29980   2.753   0.715   0.207
 5974SOL    HW129981   2.846   0.698   0.240
 5974SOL    HW229982   2.730   0.647   0.137
 5975SOL     OW29983   3.176   0.179   0.533
 5975SOL    HW129984   3.090   0.161   0.581
 5975SOL    HW229985   3.185   0.277   0.515
 5976SOL     OW29986   3.272   0.554   1.548
 5976SOL    HW129987   3.223   0.568   1.634
 5976SOL    HW229988   3.220   0.492   1.490
 5977SOL     OW29989   2.030   0.029   0.079
 5977SOL    HW129990   1.983   9.949   0.043
 5977SOL    HW229991   2.034   0.023   0.179
 5978SOL     OW29992   2.255   1.052   1.169
 5978SOL    HW129993   2.218   0.987   1.237
 5978SOL    HW229994   2.256   1.144   1.208
 5979SOL     OW29995   3.483   1.018   0.168
 5979SOL    HW129996   3.578   1.041   0.189
 5979SOL    HW229997   3.476   0.986   0.073
 5980SOL     OW29998   3.015   1.073   1.653
 5980SOL    HW129999   2.924   1.030   1.655
 5980SOL    HW230000   3.082   1.010   1.692
 5981SOL     OW30001   2.924   0.160   0.649
 5981SOL    HW130002   2.857   0.233   0.635
 5981SOL    HW230003   2.910   0.119   0.739
 5982SOL     OW30004   3.000   1.764   1.623
 5982SOL    HW130005   2.931   1.772   1.552
 5982SOL    HW230006   3.033   1.855   1.649
 5983SOL     OW30007   2.599   0.120   0.951
 5983SOL    HW130008   2.569   0.046   1.011
 5983SOL    HW230009   2.699   0.118   0.942
 5984SOL     OW30010   2.184   1.847   1.285
 5984SOL    HW130011   2.181   1.786   1.205
 5984SOL    HW230012   2.098   1.839   1.336
 5985SOL     OW30013   2.860   1.211   0.885
 5985SOL    HW130014   2.884   1.292   0.833
 5985SOL    HW230015   2.942   1.171   0.927
 5986SOL     OW30016   2.563   0.978   1.016
 5986SOL    HW130017   2.550   0.888   0.975
 5986SOL    HW230018   2.548   0.972   1.115
 5987SOL     OW30019   1.840   0.985   1.163
 5987SOL    HW130020   1.891   0.901   1.176
 5987SOL    HW230021   1.756   0.966   1.112
 5988SOL     OW30022   2.029   0.005   0.342
 5988SOL    HW130023   2.064   9.939   0.409
 5988SOL    HW230024   1.941   0.040   0.372
 5989SOL     OW30025   2.512   0.686   1.778
 5989SOL    HW130026   2.548   0.731   1.696
 5989SOL    HW230027   2.581   0.688   1.850
 5990SOL     OW30028   1.914   1.054   0.238
 5990SOL    HW130029   1.935   0.958   0.222
 5990SOL    HW230030   1.977   1.111   0.185
 5991SOL     OW30031   3.670   0.259   0.814
 5991SOL    HW130032   3.701   0.235   0.906
 5991SOL    HW230033   3.749   0.276   0.756
 5992SOL     OW30034   2.670   1.223   1.093
 5992SOL    HW130035   2.625   1.138   1.066
 5992SOL    HW230036   2.738   1.248   1.025
 5993SOL     OW30037   3.077   0.572   0.234
 5993SOL    HW130038   3.103   0.657   0.281
 5993SOL    HW230039   3.049   0.592   0.140
 5994SOL     OW30040   3.403   1.452   1.676
 5994SOL    HW130041   3.363   1.369   1.715
 5994SOL    HW230042   3.331   1.508   1.636
 5995SOL     OW30043   2.136   0.886   1.358
 5995SOL    HW130044   2.168   0.803   1.402
 5995SOL    HW230045   2.090   0.944   1.425
 5996SOL     OW30046   2.601   1.386   0.079
 5996SOL    HW130047   2.564   1.476   0.103
 5996SOL    HW230048   2.688   1.373   0.126
 5997SOL     OW30049   2.399   1.627   1.068
 5997SOL    HW130050   2.430   1.620   0.973
 5997SOL    HW230051   2.433   1.548   1.119
 5998SOL     OW30052   2.618   1.130   0.776
 5998SOL    HW130053   2.704   1.170   0.809
 5998SOL    HW230054   2.578   1.073   0.848
 5999SOL     OW30055   2.796   1.508   0.510
 5999SOL    HW130056   2.841   1.530   0.423
 5999SOL    HW230057   2.737   1.429   0.497
 6000SOL     OW30058   2.007   0.837   0.910
 6000SOL    HW130059   2.098   0.825   0.868
 6000SOL    HW230060   1.948   0.886   0.847
 6001SOL     OW30061   1.897   0.931   1.807
 6001SOL    HW130062   1.798   0.940   1.797
 6001SOL    HW230063   1.917   0.882   1.891
 6002SOL     OW30064   2.800   1.806   1.438
 6002SOL    HW130065   2.758   1.745   1.505
 6002SOL    HW230066   2.736   1.879   1.414
 6003SOL     OW30067   3.110   1.136   1.011
 6003SOL    HW130068   3.115   1.236   1.018
 6003SOL    HW230069   3.170   1.095   1.080
 6004SOL     OW30070   2.381   0.446   1.782
 6004SOL    HW130071   2.411   0.389   1.705
 6004SOL    HW230072   2.430   0.533   1.779
 6005SOL     OW30073   2.386   0.905   0.395
 6005SOL    HW130074   2.351   0.988   0.350
 6005SOL    HW230075   2.312   0.863   0.449
 6006SOL     OW30076   3.487   0.921   0.979
 6006SOL    HW130077   3.489   1.008   0.929
 6006SOL    HW230078   3.409   0.922   1.042
 6007SOL     OW30079   3.207   0.317   1.410
 6007SOL    HW130080   3.282   0.296   1.472
 6007SOL    HW230081   3.143   0.241   1.407
 6008SOL     OW30082   1.776   0.074   0.406
 6008SOL    HW130083   1.689   0.054   0.450
 6008SOL    HW230084   1.804   0.168   0.426
 6009SOL     OW30085   2.976   0.097   1.655
 6009SOL    HW130086   3.023   0.085   1.568
 6009SOL    HW230087   2.950   0.193   1.665
 6010SOL     OW30088   2.297   1.601   1.642
 6010SOL    HW130089   2.238   1.658   1.699
 6010SOL    HW230090   2.340   1.657   1.571
 6011SOL     OW30091   3.633   1.462   1.524
 6011SOL    HW130092   3.684   1.543   1.551
 6011SOL    HW230093   3.549   1.455   1.579
 6012SOL     OW30094   2.885   0.477   1.065
 6012SOL    HW130095   2.953   0.538   1.107
 6012SOL    HW230096   2.867   0.400   1.126
 6013SOL     OW30097   2.288   1.468   0.672
 6013SOL    HW130098   2.303   1.370   0.686
 6013SOL    HW230099   2.191   1.489   0.680
 6014SOL     OW30100   2.954   1.564   1.178
 6014SOL    HW130101   2.862   1.603   1.176
 6014SOL    HW230102   3.021   1.637   1.167
 6015SOL     OW30103   2.131   1.765   1.802
 6015SOL    HW130104   2.154   1.863   1.802
 6015SOL    HW230105   2.130   1.732   1.897
 6016SOL     OW30106   1.970   1.287   1.644
 6016SOL    HW130107   1.960   1.193   1.612
 6016SOL    HW230108   1.899   1.345   1.603
 6017SOL     OW30109   2.124   1.647   1.093
 6017SOL    HW130110   2.086   1.555   1.101
 6017SOL    HW230111   2.222   1.640   1.075
 6018SOL     OW30112   2.880   0.128   0.940
 6018SOL    HW130113   2.958   0.190   0.933
 6018SOL    HW230114   2.885   0.078   1.027
 6019SOL     OW30115   2.937   1.214   0.439
 6019SOL    HW130116   3.025   1.224   0.486
 6019SOL    HW230117   2.880   1.149   0.489
 6020SOL     OW30118   3.488   0.460   0.748
 6020SOL    HW130119   3.511   0.540   0.802
 6020SOL    HW230120   3.548   0.384   0.774
 6021SOL     OW30121   2.628   1.141   0.282
 6021SOL    HW130122   2.701   1.203   0.252
 6021SOL    HW230123   2.631   1.057   0.228
 6022SOL     OW30124   2.350   0.492   0.780
 6022SOL    HW130125   2.407   0.411   0.765
 6022SOL    HW230126   2.404   0.574   0.762
 6023SOL     OW30127   3.550   1.131   1.272
 6023SOL    HW130128   3.563   1.230   1.264
 6023SOL    HW230129   3.624   1.084   1.223
 6024SOL     OW30130   2.071   1.256   0.106
 6024SOL    HW130131   1.985   1.303   0.086
 6024SOL    HW230132   2.134   1.319   0.151
 6025SOL     OW30133   2.495   1.622   0.177
 6025SOL    HW130134   2.467   1.715   0.153
 6025SOL    HW230135   2.478   1.606   0.274
 6026SOL     OW30136   3.175   1.156   1.448
 6026SOL    HW130137   3.116   1.118   1.519
 6026SOL    HW230138   3.161   1.255   1.442
 6027SOL     OW30139   2.403   1.758   1.436
 6027SOL    HW130140   2.466   1.835   1.441
 6027SOL    HW230141   2.325   1.783   1.378
 6028SOL     OW30142   2.057   0.598   1.726
 6028SOL    HW130143   2.043   0.499   1.738
 6028SOL    HW230144   2.123   0.630   1.794
 6029SOL     OW30145   3.532   1.536   1.009
 6029SOL    HW130146   3.604   1.604   1.005
 6029SOL    HW230147   3.536   1.488   1.097
 6030SOL     OW30148   1.849   0.956   0.700
 6030SOL    HW130149   1.880   1.027   0.637
 6030SOL    HW230150   1.749   0.958   0.706
 6031SOL     OW30151   3.480   1.167   0.839
 6031SOL    HW130152   3.449   1.261   0.825
 6031SOL    HW230153   3.453   1.111   0.761
 6032SOL     OW30154   2.608   0.525   1.067
 6032SOL    HW130155   2.702   0.502   1.041
 6032SOL    HW230156   2.603   0.537   1.167
 6033SOL     OW30157   2.488   1.403   1.201
 6033SOL    HW130158   2.401   1.357   1.220
 6033SOL    HW230159   2.551   1.338   1.159
 6034SOL     OW30160   1.991   0.746   1.168
 6034SOL    HW130161   2.053   0.797   1.227
 6034SOL    HW230162   2.006   0.772   1.072
 6035SOL     OW30163   2.205   1.364   1.530
 6035SOL    HW130164   2.243   1.450   1.566
 6035SOL    HW230165   2.116   1.346   1.573
 6036SOL     OW30166   3.523   1.683   1.775
 6036SOL    HW130167   3.484   1.592   1.758
 6036SOL    HW230168   3.479   1.750   1.716
 6037SOL     OW30169   3.204   1.235   0.522
 6037SOL    HW130170   3.298   1.237   0.556
 6037SOL    HW230171   3.205   1.225   0.422
 6038SOL     OW30172   3.473   0.073   0.792
 6038SOL    HW130173   3.454   0.056   0.695
 6038SOL    HW230174   3.543   0.144   0.800
 6039SOL     OW30175   3.024   0.666   1.420
 6039SOL    HW130176   3.110   0.702   1.456
 6039SOL    HW230177   3.030   0.661   1.320
 6040SOL     OW30178   2.529   0.731   0.889
 6040SOL    HW130179   2.548   0.657   0.954
 6040SOL    HW230180   2.561   0.705   0.798
 6041SOL     OW30181   3.119   1.403   1.036
 6041SOL    HW130182   3.049   1.453   1.087
 6041SOL    HW230183   3.133   1.447   0.948
 6042SOL     OW30184   3.211   0.444   0.731
 6042SOL    HW130185   3.196   0.452   0.632
 6042SOL    HW230186   3.309   0.452   0.750
 6043SOL     OW30187   2.938   1.459   2.592
 6043SOL    HW130188   3.032   1.491   2.591
 6043SOL    HW230189   2.893   1.483   2.506
 6044SOL     OW30190   3.450   1.289   2.397
 6044SOL    HW130191   3.459   1.351   2.475
 6044SOL    HW230192   3.540   1.254   2.371
 6045SOL     OW30193   3.473   0.614   3.230
 6045SOL    HW130194   3.396   0.576   3.282
 6045SOL    HW230195   3.484   0.711   3.253
 6046SOL     OW30196   2.192   0.284   1.880
 6046SOL    HW130197   2.115   0.287   1.817
 6046SOL    HW230198   2.262   0.349   1.851
 6047SOL     OW30199   3.202   1.556   2.634
 6047SOL    HW130200   3.212   1.653   2.657
 6047SOL    HW230201   3.293   1.517   2.615
 6048SOL     OW30202   3.075   0.061   3.296
 6048SOL    HW130203   2.988   0.033   3.254
 6048SOL    HW230204   3.151   0.022   3.245
 6049SOL     OW30205   2.800   0.920   3.599
 6049SOL    HW130206   2.759   0.937   3.509
 6049SOL    HW230207   2.732   0.938   3.670
 6050SOL     OW30208   2.401   1.480   2.265
 6050SOL    HW130209   2.349   1.500   2.348
 6050SOL    HW230210   2.478   1.421   2.287
 6051SOL     OW30211   2.385   0.101   1.943
 6051SOL    HW130212   2.468   0.157   1.945
 6051SOL    HW230213   2.308   0.159   1.916
 6052SOL     OW30214   3.455   1.141   3.436
 6052SOL    HW130215   3.360   1.145   3.404
 6052SOL    HW230216   3.517   1.140   3.358
 6053SOL     OW30217   3.257   1.082   3.071
 6053SOL    HW130218   3.233   1.078   3.168
 6053SOL    HW230219   3.297   1.171   3.050
 6054SOL     OW30220   2.825   1.358   3.321
 6054SOL    HW130221   2.743   1.415   3.314
 6054SOL    HW230222   2.810   1.271   3.273
 6055SOL     OW30223   2.388   1.183   2.577
 6055SOL    HW130224   2.366   1.280   2.592
 6055SOL    HW230225   2.487   1.170   2.582
 6056SOL     OW30226   3.138   0.548   3.653
 6056SOL    HW130227   3.233   0.552   3.684
 6056SOL    HW230228   3.093   0.469   3.695
 6057SOL     OW30229   2.266   1.416   2.026
 6057SOL    HW130230   2.326   1.422   1.946
 6057SOL    HW230231   2.312   1.453   2.106
 6058SOL     OW30232   2.406   0.348   2.897
 6058SOL    HW130233   2.490   0.401   2.908
 6058SOL    HW230234   2.429   0.256   2.864
 6059SOL     OW30235   2.579   1.700   2.454
 6059SOL    HW130236   2.655   1.640   2.429
 6059SOL    HW230237   2.577   1.779   2.392
 6060SOL     OW30238   3.621   1.628   2.254
 6060SOL    HW130239   3.714   1.594   2.242
 6060SOL    HW230240   3.594   1.681   2.174
 6061SOL     OW30241   3.487   0.308   2.991
 6061SOL    HW130242   3.522   0.402   2.985
 6061SOL    HW230243   3.389   0.308   2.968
 6062SOL     OW30244   2.918   0.355   2.191
 6062SOL    HW130245   2.999   0.397   2.232
 6062SOL    HW230246   2.881   0.286   2.253
 6063SOL     OW30247   2.257   0.719   1.895
 6063SOL    HW130248   2.251   0.819   1.899
 6063SOL    HW230249   2.341   0.693   1.848
 6064SOL     OW30250   2.485   1.549   2.663
 6064SOL    HW130251   2.525   1.608   2.594
 6064SOL    HW230252   2.399   1.511   2.629
 6065SOL     OW30253   2.794   0.593   3.420
 6065SOL    HW130254   2.818   0.507   3.465
 6065SOL    HW230255   2.876   0.633   3.379
 6066SOL     OW30256   3.475   1.449   2.633
 6066SOL    HW130257   3.479   1.467   2.731
 6066SOL    HW230258   3.534   1.513   2.584
 6067SOL     OW30259   2.199   1.199   2.377
 6067SOL    HW130260   2.269   1.174   2.444
 6067SOL    HW230261   2.233   1.182   2.285
 6068SOL     OW30262   3.026   0.326   1.936
 6068SOL    HW130263   3.102   0.263   1.951
 6068SOL    HW230264   2.979   0.342   2.023
 6069SOL     OW30265   3.231   0.806   3.137
 6069SOL    HW130266   3.211   0.896   3.097
 6069SOL    HW230267   3.313   0.813   3.194
 6070SOL     OW30268   2.227   0.249   2.310
 6070SOL    HW130269   2.184   0.278   2.396
 6070SOL    HW230270   2.181   0.293   2.233
 6071SOL     OW30271   3.385   1.746   3.149
 6071SOL    HW130272   3.309   1.752   3.084
 6071SOL    HW230273   3.471   1.738   3.098
 6072SOL     OW30274   3.581   0.568   2.986
 6072SOL    HW130275   3.670   0.614   2.975
 6072SOL    HW230276   3.547   0.585   3.078
 6073SOL     OW30277   3.642   1.728   3.029
 6073SOL    HW130278   3.674   1.775   3.112
 6073SOL    HW230279   3.721   1.705   2.972
 6074SOL     OW30280   2.734   0.582   2.481
 6074SOL    HW130281   2.807   0.596   2.548
 6074SOL    HW230282   2.742   0.651   2.408
 6075SOL     OW30283   3.064   0.974   1.974
 6075SOL    HW130284   3.092   0.945   2.065
 6075SOL    HW230285   3.021   0.898   1.926
 6076SOL     OW30286   2.841   0.349   3.579
 6076SOL    HW130287   2.907   0.354   3.653
 6076SOL    HW230288   2.753   0.317   3.614
 6077SOL     OW30289   3.588   0.697   2.221
 6077SOL    HW130290   3.530   0.616   2.227
 6077SOL    HW230291   3.655   0.697   2.295
 6078SOL     OW30292   2.833   1.778   2.003
 6078SOL    HW130293   2.866   1.727   1.924
 6078SOL    HW230294   2.860   1.731   2.087
 6079SOL     OW30295   2.635   0.063   3.559
 6079SOL    HW130296   2.686   9.979   3.542
 6079SOL    HW230297   2.656   0.096   3.651
 6080SOL     OW30298   3.414   0.673   2.795
 6080SOL    HW130299   3.413   0.773   2.803
 6080SOL    HW230300   3.477   0.635   2.864
 6081SOL     OW30301   2.935   1.324   3.583
 6081SOL    HW130302   2.987   1.239   3.575
 6081SOL    HW230303   2.887   1.343   3.497
 6082SOL     OW30304   2.536   1.146   3.574
 6082SOL    HW130305   2.497   1.236   3.592
 6082SOL    HW230306   2.553   1.099   3.660
 6083SOL     OW30307   3.220   0.039   2.748
 6083SOL    HW130308   3.156   0.115   2.737
 6083SOL    HW230309   3.299   0.054   2.689
 6084SOL     OW30310   3.599   0.275   3.631
 6084SOL    HW130311   3.523   0.257   3.694
 6084SOL    HW230312   3.681   0.295   3.684
 6085SOL     OW30313   1.807   0.644   2.444
 6085SOL    HW130314   1.867   0.594   2.506
 6085SOL    HW230315   1.809   0.742   2.468
 6086SOL     OW30316   2.190   0.132   2.702
 6086SOL    HW130317   2.162   0.157   2.795
 6086SOL    HW230318   2.288   0.110   2.702
 6087SOL     OW30319   2.175   0.190   2.973
 6087SOL    HW130320   2.143   0.188   3.068
 6087SOL    HW230321   2.251   0.256   2.965
 6088SOL     OW30322   2.932   0.842   2.808
 6088SOL    HW130323   3.011   0.892   2.773
 6088SOL    HW230324   2.920   0.758   2.754
 6089SOL     OW30325   2.030   1.554   2.203
 6089SOL    HW130326   2.064   1.470   2.160
 6089SOL    HW230327   2.075   1.633   2.163
 6090SOL     OW30328   3.308   1.355   3.076
 6090SOL    HW130329   3.273   1.396   2.992
 6090SOL    HW230330   3.239   1.364   3.149
 6091SOL     OW30331   2.026   1.580   2.487
 6091SOL    HW130332   1.933   1.602   2.519
 6091SOL    HW230333   2.027   1.576   2.387
 6092SOL     OW30334   3.578   1.364   3.119
 6092SOL    HW130335   3.605   1.408   3.205
 6092SOL    HW230336   3.478   1.363   3.113
 6093SOL     OW30337   2.285   0.990   1.908
 6093SOL    HW130338   2.259   1.037   1.825
 6093SOL    HW230339   2.275   1.051   1.986
 6094SOL     OW30340   2.778   1.119   3.175
 6094SOL    HW130341   2.837   1.042   3.151
 6094SOL    HW230342   2.731   1.152   3.093
 6095SOL     OW30343   1.930   0.816   2.054
 6095SOL    HW130344   2.000   0.747   2.069
 6095SOL    HW230345   1.846   0.791   2.102
 6096SOL     OW30346   3.431   0.926   2.236
 6096SOL    HW130347   3.490   0.846   2.231
 6096SOL    HW230348   3.457   0.992   2.166
 6097SOL     OW30349   2.706   1.816   2.850
 6097SOL    HW130350   2.747   1.734   2.810
 6097SOL    HW230351   2.625   1.789   2.903
 6098SOL     OW30352   2.562   0.954   1.957
 6098SOL    HW130353   2.602   0.863   1.967
 6098SOL    HW230354   2.465   0.945   1.932
 6099SOL     OW30355   3.180   0.448   2.278
 6099SOL    HW130356   3.145   0.520   2.218
 6099SOL    HW230357   3.280   0.453   2.281
 6100SOL     OW30358   2.877   0.876   3.077
 6100SOL    HW130359   2.899   0.865   2.980
 6100SOL    HW230360   2.796   0.823   3.100
 6101SOL     OW30361   3.463   0.451   2.308
 6101SOL    HW130362   3.555   0.414   2.300
 6101SOL    HW230363   3.443   0.473   2.403
 6102SOL     OW30364   2.759   1.559   2.770
 6102SOL    HW130365   2.822   1.523   2.701
 6102SOL    HW230366   2.665   1.537   2.743
 6103SOL     OW30367   2.673   0.453   2.109
 6103SOL    HW130368   2.604   0.415   2.171
 6103SOL    HW230369   2.764   0.428   2.142
 6104SOL     OW30370   2.815   1.318   1.998
 6104SOL    HW130371   2.868   1.293   2.080
 6104SOL    HW230372   2.874   1.312   1.918
 6105SOL     OW30373   3.627   1.648   2.525
 6105SOL    HW130374   3.582   1.731   2.560
 6105SOL    HW230375   3.619   1.645   2.426
 6106SOL     OW30376   3.059   0.931   2.451
 6106SOL    HW130377   3.083   0.945   2.547
 6106SOL    HW230378   2.968   0.970   2.434
 6107SOL     OW30379   2.695   1.659   3.489
 6107SOL    HW130380   2.649   1.601   3.422
 6107SOL    HW230381   2.683   1.620   3.580
 6108SOL     OW30382   3.153   0.977   2.704
 6108SOL    HW130383   3.240   0.947   2.743
 6108SOL    HW230384   3.122   1.059   2.751
 6109SOL     OW30385   2.805   1.021   2.385
 6109SOL    HW130386   2.772   0.937   2.341
 6109SOL    HW230387   2.747   1.040   2.465
 6110SOL     OW30388   3.099   1.378   3.260
 6110SOL    HW130389   3.143   1.462   3.292
 6110SOL    HW230390   3.001   1.381   3.279
 6111SOL     OW30391   1.898   0.297   2.310
 6111SOL    HW130392   1.955   0.320   2.231
 6111SOL    HW230393   1.952   0.306   2.394
 6112SOL     OW30394   3.553   1.781   2.029
 6112SOL    HW130395   3.629   1.847   2.026
 6112SOL    HW230396   3.544   1.738   1.939
 6113SOL     OW30397   2.667   0.758   3.222
 6113SOL    HW130398   2.653   0.841   3.277
 6113SOL    HW230399   2.707   0.687   3.280
 6114SOL     OW30400   1.915   1.812   3.250
 6114SOL    HW130401   1.866   1.899   3.251
 6114SOL    HW230402   1.903   1.766   3.338
 6115SOL     OW30403   2.696   0.786   2.283
 6115SOL    HW130404   2.607   0.785   2.329
 6115SOL    HW230405   2.685   0.762   2.187
 6116SOL     OW30406   2.250   0.505   2.727
 6116SOL    HW130407   2.309   0.518   2.647
 6116SOL    HW230408   2.298   0.450   2.795
 6117SOL     OW30409   2.149   1.783   2.105
 6117SOL    HW130410   2.235   1.813   2.063
 6117SOL    HW230411   2.148   1.812   2.201
 6118SOL     OW30412   3.165   1.753   2.980
 6118SOL    HW130413   3.197   1.774   2.888
 6118SOL    HW230414   3.084   1.694   2.975
 6119SOL     OW30415   2.654   0.012   2.183
 6119SOL    HW130416   2.683   9.948   2.112
 6119SOL    HW230417   2.554   0.010   2.190
 6120SOL     OW30418   1.920   1.136   2.363
 6120SOL    HW130419   2.011   1.170   2.388
 6120SOL    HW230420   1.917   1.123   2.264
 6121SOL     OW30421   3.443   0.321   3.407
 6121SOL    HW130422   3.394   0.408   3.415
 6121SOL    HW230423   3.500   0.307   3.488
 6122SOL     OW30424   3.060   0.271   2.741
 6122SOL    HW130425   3.089   0.337   2.672
 6122SOL    HW230426   3.103   0.293   2.829
 6123SOL     OW30427   3.235   0.156   2.017
 6123SOL    HW130428   3.247   0.064   1.981
 6123SOL    HW230429   3.224   0.152   2.116
 6124SOL     OW30430   3.623   0.053   3.460
 6124SOL    HW130431   3.613   0.088   3.367
 6124SOL    HW230432   3.622   0.130   3.525
 6125SOL     OW30433   2.639   0.332   2.527
 6125SOL    HW130434   2.678   0.289   2.609
 6125SOL    HW230435   2.681   0.422   2.514
 6126SOL     OW30436   3.185   0.616   2.947
 6126SOL    HW130437   3.254   0.635   2.878
 6126SOL    HW230438   3.195   0.681   3.023
 6127SOL     OW30439   3.443   0.027   2.320
 6127SOL    HW130440   3.444   9.959   2.247
 6127SOL    HW230441   3.361   0.084   2.312
 6128SOL     OW30442   2.435   1.404   3.653
 6128SOL    HW130443   2.381   1.460   3.589
 6128SOL    HW230444   2.518   1.453   3.679
 6129SOL     OW30445   1.901   1.442   2.921
 6129SOL    HW130446   1.844   1.415   2.844
 6129SOL    HW230447   1.857   1.414   3.007
 6130SOL     OW30448   2.935   0.599   2.664
 6130SOL    HW130449   3.016   0.559   2.622
 6130SOL    HW230450   2.924   0.565   2.757
 6131SOL     OW30451   3.206   0.347   2.974
 6131SOL    HW130452   3.198   0.446   2.962
 6131SOL    HW230453   3.196   0.323   3.070
 6132SOL     OW30454   3.398   0.525   3.738
 6132SOL    HW130455   3.472   0.539   3.672
 6132SOL    HW230456   3.395   0.429   3.765
 6133SOL     OW30457   3.164   0.879   2.210
 6133SOL    HW130458   3.120   0.898   2.298
 6133SOL    HW230459   3.262   0.897   2.217
 6134SOL     OW30460   3.388   0.989   2.502
 6134SOL    HW130461   3.398   0.977   2.403
 6134SOL    HW230462   3.291   0.984   2.526
 6135SOL     OW30463   3.450   0.875   3.292
 6135SOL    HW130464   3.405   0.898   3.378
 6135SOL    HW230465   3.501   0.955   3.258
 6136SOL     OW30466   3.449   0.335   2.037
 6136SOL    HW130467   3.455   0.367   2.131
 6136SOL    HW230468   3.372   0.272   2.028
 6137SOL     OW30469   2.580   1.520   3.278
 6137SOL    HW130470   2.508   1.589   3.276
 6137SOL    HW230471   2.560   1.449   3.211
 6138SOL     OW30472   1.890   1.676   3.489
 6138SOL    HW130473   1.974   1.692   3.540
 6138SOL    HW230474   1.812   1.685   3.551
 6139SOL     OW30475   2.067   0.312   2.529
 6139SOL    HW130476   2.043   0.396   2.577
 6139SOL    HW230477   2.108   0.248   2.593
 6140SOL     OW30478   3.251   1.589   3.335
 6140SOL    HW130479   3.198   1.652   3.393
 6140SOL    HW230480   3.303   1.642   3.268
 6141SOL     OW30481   2.118   0.625   2.109
 6141SOL    HW130482   2.179   0.653   2.036
 6141SOL    HW230483   2.165   0.632   2.197
 6142SOL     OW30484   3.588   0.192   3.216
 6142SOL    HW130485   3.540   0.244   3.287
 6142SOL    HW230486   3.559   0.224   3.126
 6143SOL     OW30487   2.348   1.832   2.549
 6143SOL    HW130488   2.274   1.837   2.482
 6143SOL    HW230489   2.425   1.780   2.511
 6144SOL     OW30490   3.031   1.569   3.690
 6144SOL    HW130491   2.996   1.482   3.654
 6144SOL    HW230492   3.056   1.629   3.614
 6145SOL     OW30493   2.605   1.302   2.339
 6145SOL    HW130494   2.607   1.256   2.250
 6145SOL    HW230495   2.641   1.240   2.409
 6146SOL     OW30496   2.073   0.358   2.112
 6146SOL    HW130497   2.112   0.321   2.028
 6146SOL    HW230498   2.078   0.458   2.109
 6147SOL     OW30499   1.991   0.554   2.668
 6147SOL    HW130500   1.958   0.645   2.693
 6147SOL    HW230501   2.087   0.545   2.694
 6148SOL     OW30502   2.322   1.166   2.129
 6148SOL    HW130503   2.421   1.168   2.124
 6148SOL    HW230504   2.285   1.250   2.089
 6149SOL     OW30505   2.953   0.722   1.862
 6149SOL    HW130506   2.899   0.742   1.780
 6149SOL    HW230507   3.029   0.662   1.837
 6150SOL     OW30508   2.693   0.701   1.994
 6150SOL    HW130509   2.788   0.711   1.965
 6150SOL    HW230510   2.679   0.610   2.032
 6151SOL     OW30511   3.214   0.170   2.288
 6151SOL    HW130512   3.144   0.115   2.333
 6151SOL    HW230513   3.193   0.267   2.300
 6152SOL     OW30514   3.262   0.530   3.395
 6152SOL    HW130515   3.206   0.555   3.474
 6152SOL    HW230516   3.209   0.469   3.335
 6153SOL     OW30517   1.875   9.985   1.909
 6153SOL    HW130518   1.847   9.930   1.989
 6153SOL    HW230519   1.888   0.080   1.937
 6154SOL     OW30520   3.510   1.080   2.026
 6154SOL    HW130521   3.607   1.094   2.047
 6154SOL    HW230522   3.498   1.071   1.927
 6155SOL     OW30523   2.520   0.742   2.996
 6155SOL    HW130524   2.572   0.747   3.081
 6155SOL    HW230525   2.422   0.736   3.016
 6156SOL     OW30526   2.643   0.987   3.379
 6156SOL    HW130527   2.689   1.041   3.308
 6156SOL    HW230528   2.594   1.047   3.441
 6157SOL     OW30529   3.030   1.059   3.535
 6157SOL    HW130530   2.946   1.009   3.558
 6157SOL    HW230531   3.107   1.021   3.585
 6158SOL     OW30532   3.016   0.015   2.388
 6158SOL    HW130533   3.017   9.959   2.471
 6158SOL    HW230534   2.932   0.070   2.387
 6159SOL     OW30535   3.092   1.745   3.488
 6159SOL    HW130536   3.016   1.771   3.429
 6159SOL    HW230537   3.137   1.828   3.523
 6160SOL     OW30538   2.465   0.091   2.818
 6160SOL    HW130539   2.461   0.038   2.902
 6160SOL    HW230540   2.555   0.080   2.775
 6161SOL     OW30541   2.157   1.819   3.112
 6161SOL    HW130542   2.133   1.769   3.029
 6161SOL    HW230543   2.078   1.823   3.172
 6162SOL     OW30544   2.850   1.237   2.730
 6162SOL    HW130545   2.881   1.316   2.677
 6162SOL    HW230546   2.927   1.202   2.784
 6163SOL     OW30547   2.546   0.946   2.807
 6163SOL    HW130548   2.456   0.940   2.763
 6163SOL    HW230549   2.555   0.870   2.873
 6164SOL     OW30550   2.121   9.993   2.252
 6164SOL    HW130551   2.154   0.084   2.276
 6164SOL    HW230552   2.026   9.983   2.282
 6165SOL     OW30553   2.563   0.715   3.517
 6165SOL    HW130554   2.567   0.806   3.477
 6165SOL    HW230555   2.646   0.664   3.494
 6166SOL     OW30556   1.945   1.092   2.092
 6166SOL    HW130557   1.957   0.994   2.073
 6166SOL    HW230558   1.994   1.145   2.023
 6167SOL     OW30559   3.612   0.294   2.625
 6167SOL    HW130560   3.650   0.286   2.717
 6167SOL    HW230561   3.686   0.289   2.558
 6168SOL     OW30562   2.659   1.174   2.928
 6168SOL    HW130563   2.618   1.090   2.891
 6168SOL    HW230564   2.726   1.209   2.863
 6169SOL     OW30565   3.078   0.639   2.118
 6169SOL    HW130566   3.109   0.726   2.157
 6169SOL    HW230567   3.027   0.657   2.034
 6170SOL     OW30568   3.405   1.445   3.508
 6170SOL    HW130569   3.365   1.361   3.544
 6170SOL    HW230570   3.343   1.487   3.442
 6171SOL     OW30571   2.670   1.524   1.884
 6171SOL    HW130572   2.622   1.577   1.953
 6171SOL    HW230573   2.728   1.456   1.928
 6172SOL     OW30574   2.476   1.679   2.918
 6172SOL    HW130575   2.468   1.630   2.830
 6172SOL    HW230576   2.427   1.628   2.988
 6173SOL     OW30577   2.654   1.100   2.604
 6173SOL    HW130578   2.729   1.155   2.641
 6173SOL    HW230579   2.623   1.035   2.673
 6174SOL     OW30580   2.776   1.519   2.375
 6174SOL    HW130581   2.839   1.539   2.300
 6174SOL    HW230582   2.720   1.440   2.352
 6175SOL     OW30583   1.875   0.792   2.734
 6175SOL    HW130584   1.819   0.833   2.806
 6175SOL    HW230585   1.864   0.844   2.649
 6176SOL     OW30586   1.863   0.989   3.628
 6176SOL    HW130587   1.767   0.979   3.603
 6176SOL    HW230588   1.886   0.925   3.701
 6177SOL     OW30589   2.873   1.802   3.329
 6177SOL    HW130590   2.820   1.725   3.365
 6177SOL    HW230591   2.835   1.887   3.365
 6178SOL     OW30592   3.076   1.174   2.874
 6178SOL    HW130593   3.101   1.271   2.872
 6178SOL    HW230594   3.116   1.130   2.954
 6179SOL     OW30595   2.385   0.409   3.636
 6179SOL    HW130596   2.450   0.390   3.563
 6179SOL    HW230597   2.380   0.508   3.651
 6180SOL     OW30598   3.390   0.950   2.847
 6180SOL    HW130599   3.440   1.022   2.799
 6180SOL    HW230600   3.360   0.983   2.936
 6181SOL     OW30601   3.210   0.296   3.247
 6181SOL    HW130602   3.296   0.284   3.297
 6181SOL    HW230603   3.149   0.219   3.267
 6182SOL     OW30604   1.834   0.036   2.332
 6182SOL    HW130605   1.751   0.028   2.388
 6182SOL    HW230606   1.857   0.133   2.321
 6183SOL     OW30607   2.965   0.092   3.548
 6183SOL    HW130608   3.021   0.084   3.466
 6183SOL    HW230609   2.923   0.183   3.551
 6184SOL     OW30610   2.301   1.589   3.501
 6184SOL    HW130611   2.231   1.644   3.546
 6184SOL    HW230612   2.324   1.630   3.413
 6185SOL     OW30613   3.642   1.468   3.361
 6185SOL    HW130614   3.688   1.551   3.393
 6185SOL    HW230615   3.564   1.448   3.420
 6186SOL     OW30616   2.920   0.530   2.924
 6186SOL    HW130617   3.009   0.569   2.944
 6186SOL    HW230618   2.908   0.445   2.976
 6187SOL     OW30619   2.258   1.439   2.515
 6187SOL    HW130620   2.227   1.360   2.463
 6187SOL    HW230621   2.182   1.503   2.526
 6188SOL     OW30622   2.938   1.592   2.977
 6188SOL    HW130623   2.870   1.579   2.905
 6188SOL    HW230624   2.892   1.603   3.065
 6189SOL     OW30625   2.112   1.758   3.630
 6189SOL    HW130626   2.104   1.856   3.609
 6189SOL    HW230627   2.130   1.747   3.728
 6190SOL     OW30628   1.947   1.247   3.583
 6190SOL    HW130629   1.915   1.153   3.586
 6190SOL    HW230630   1.900   1.297   3.510
 6191SOL     OW30631   2.052   1.668   2.899
 6191SOL    HW130632   2.011   1.578   2.911
 6191SOL    HW230633   2.078   1.680   2.803
 6192SOL     OW30634   2.784   0.200   2.735
 6192SOL    HW130635   2.878   0.231   2.723
 6192SOL    HW230636   2.778   0.138   2.814
 6193SOL     OW30637   2.923   1.230   2.239
 6193SOL    HW130638   3.016   1.244   2.273
 6193SOL    HW230639   2.881   1.153   2.287
 6194SOL     OW30640   3.422   0.491   2.583
 6194SOL    HW130641   3.424   0.563   2.652
 6194SOL    HW230642   3.488   0.420   2.607
 6195SOL     OW30643   2.598   1.182   2.095
 6195SOL    HW130644   2.673   1.236   2.057
 6195SOL    HW230645   2.595   1.093   2.050
 6196SOL     OW30646   2.641   0.207   1.976
 6196SOL    HW130647   2.658   0.147   2.055
 6196SOL    HW230648   2.647   0.303   2.005
 6197SOL     OW30649   2.421   0.534   2.511
 6197SOL    HW130650   2.481   0.454   2.518
 6197SOL    HW230651   2.477   0.616   2.497
 6198SOL     OW30652   3.589   1.096   3.191
 6198SOL    HW130653   3.589   1.192   3.162
 6198SOL    HW230654   3.649   1.043   3.131
 6199SOL     OW30655   2.071   1.248   1.907
 6199SOL    HW130656   2.036   1.266   1.815
 6199SOL    HW230657   2.134   1.320   1.934
 6200SOL     OW30658   2.505   1.643   2.062
 6200SOL    HW130659   2.452   1.726   2.042
 6200SOL    HW230660   2.471   1.601   2.146
 6201SOL     OW30661   3.197   1.136   3.332
 6201SOL    HW130662   3.138   1.096   3.402
 6201SOL    HW230663   3.161   1.226   3.306
 6202SOL     OW30664   2.377   1.721   3.261
 6202SOL    HW130665   2.433   1.802   3.276
 6202SOL    HW230666   2.297   1.745   3.206
 6203SOL     OW30667   2.078   0.643   3.755
 6203SOL    HW130668   2.060   0.555   3.797
 6203SOL    HW230669   2.171   0.644   3.717
 6204SOL     OW30670   3.513   1.519   2.891
 6204SOL    HW130671   3.544   1.609   2.920
 6204SOL    HW230672   3.534   1.452   2.962
 6205SOL     OW30673   1.814   0.917   2.499
 6205SOL    HW130674   1.858   0.993   2.451
 6205SOL    HW230675   1.718   0.939   2.515
 6206SOL     OW30676   3.495   1.163   2.694
 6206SOL    HW130677   3.484   1.261   2.677
 6206SOL    HW230678   3.459   1.112   2.616
 6207SOL     OW30679   2.638   0.501   2.925
 6207SOL    HW130680   2.735   0.516   2.910
 6207SOL    HW230681   2.593   0.589   2.942
 6208SOL     OW30682   2.509   1.336   3.092
 6208SOL    HW130683   2.419   1.294   3.099
 6208SOL    HW230684   2.565   1.285   3.026
 6209SOL     OW30685   3.489   1.689   3.599
 6209SOL    HW130686   3.456   1.598   3.576
 6209SOL    HW230687   3.463   1.754   3.527
 6210SOL     OW30688   3.192   1.247   2.305
 6210SOL    HW130689   3.282   1.258   2.346
 6210SOL    HW230690   3.201   1.219   2.209
 6211SOL     OW30691   2.504   0.317   2.279
 6211SOL    HW130692   2.408   0.286   2.283
 6211SOL    HW230693   2.544   0.311   2.371
 6212SOL     OW30694   3.446   0.077   2.596
 6212SOL    HW130695   3.447   0.049   2.500
 6212SOL    HW230696   3.501   0.159   2.608
 6213SOL     OW30697   2.994   0.724   3.282
 6213SOL    HW130698   3.094   0.726   3.271
 6213SOL    HW230699   2.952   0.783   3.213
 6214SOL     OW30700   3.139   1.436   2.872
 6214SOL    HW130701   3.067   1.489   2.916
 6214SOL    HW230702   3.163   1.478   2.785
 6215SOL     OW30703   3.150   0.459   2.556
 6215SOL    HW130704   3.139   0.459   2.457
 6215SOL    HW230705   3.246   0.473   2.579
 6216SOL     OW30706   2.921   1.468   4.455
 6216SOL    HW130707   3.013   1.505   4.458
 6216SOL    HW230708   2.882   1.481   4.364
 6217SOL     OW30709   3.367   1.360   4.245
 6217SOL    HW130710   3.396   1.415   4.323
 6217SOL    HW230711   3.376   1.263   4.267
 6218SOL     OW30712   3.387   0.660   5.152
 6218SOL    HW130713   3.298   0.623   5.180
 6218SOL    HW230714   3.447   0.666   5.232
 6219SOL     OW30715   2.210   0.245   3.750
 6219SOL    HW130716   2.161   0.194   3.679
 6219SOL    HW230717   2.274   0.309   3.707
 6220SOL     OW30718   3.172   1.582   4.507
 6220SOL    HW130719   3.165   1.677   4.537
 6220SOL    HW230720   3.266   1.561   4.483
 6221SOL     OW30721   3.060   0.078   5.102
 6221SOL    HW130722   3.009   0.007   5.151
 6221SOL    HW230723   3.150   0.043   5.076
 6222SOL     OW30724   2.806   0.902   5.440
 6222SOL    HW130725   2.769   0.916   5.349
 6222SOL    HW230726   2.734   0.916   5.508
 6223SOL     OW30727   2.419   1.510   4.107
 6223SOL    HW130728   2.373   1.533   4.193
 6223SOL    HW230729   2.487   1.440   4.124
 6224SOL     OW30730   2.416   0.094   3.841
 6224SOL    HW130731   2.497   0.145   3.813
 6224SOL    HW230732   2.334   0.145   3.818
 6225SOL     OW30733   3.382   1.043   5.211
 6225SOL    HW130734   3.287   1.067   5.193
 6225SOL    HW230735   3.441   1.081   5.141
 6226SOL     OW30736   3.219   1.110   4.902
 6226SOL    HW130737   3.177   1.077   4.986
 6226SOL    HW230738   3.255   1.203   4.916
 6227SOL     OW30739   2.821   1.370   5.167
 6227SOL    HW130740   2.738   1.424   5.156
 6227SOL    HW230741   2.816   1.288   5.110
 6228SOL     OW30742   2.326   1.221   4.404
 6228SOL    HW130743   2.273   1.179   4.477
 6228SOL    HW230744   2.421   1.191   4.411
 6229SOL     OW30745   2.551   0.617   4.266
 6229SOL    HW130746   2.576   0.694   4.207
 6229SOL    HW230747   2.532   0.537   4.209
 6230SOL     OW30748   3.136   0.516   5.496
 6230SOL    HW130749   3.236   0.512   5.500
 6230SOL    HW230750   3.098   0.450   5.561
 6231SOL     OW30751   2.273   1.443   3.881
 6231SOL    HW130752   2.331   1.433   3.800
 6231SOL    HW230753   2.330   1.468   3.959
 6232SOL     OW30754   2.400   0.316   4.711
 6232SOL    HW130755   2.451   0.402   4.709
 6232SOL    HW230756   2.463   0.240   4.694
 6233SOL     OW30757   2.174   0.761   4.219
 6233SOL    HW130758   2.201   0.798   4.308
 6233SOL    HW230759   2.075   0.748   4.217
 6234SOL     OW30760   2.674   1.717   4.342
 6234SOL    HW130761   2.720   1.641   4.298
 6234SOL    HW230762   2.657   1.789   4.275
 6235SOL     OW30763   3.488   1.670   4.068
 6235SOL    HW130764   3.462   1.574   4.053
 6235SOL    HW230765   3.493   1.718   3.981
 6236SOL     OW30766   3.492   0.375   4.824
 6236SOL    HW130767   3.529   0.456   4.871
 6236SOL    HW230768   3.397   0.393   4.798
 6237SOL     OW30769   2.892   0.389   4.026
 6237SOL    HW130770   2.943   0.470   4.054
 6237SOL    HW230771   2.878   0.330   4.105
 6238SOL     OW30772   2.008   1.030   5.282
 6238SOL    HW130773   2.101   1.061   5.300
 6238SOL    HW230774   1.968   0.994   5.366
 6239SOL     OW30775   2.351   0.684   3.684
 6239SOL    HW130776   2.323   0.775   3.714
 6239SOL    HW230777   2.430   0.691   3.623
 6240SOL     OW30778   2.515   1.602   4.525
 6240SOL    HW130779   2.574   1.651   4.461
 6240SOL    HW230780   2.440   1.560   4.475
 6241SOL     OW30781   2.802   0.607   5.265
 6241SOL    HW130782   2.829   0.524   5.314
 6241SOL    HW230783   2.884   0.659   5.241
 6242SOL     OW30784   3.449   1.504   4.471
 6242SOL    HW130785   3.468   1.516   4.568
 6242SOL    HW230786   3.507   1.566   4.418
 6243SOL     OW30787   2.154   1.250   4.189
 6243SOL    HW130788   2.213   1.239   4.269
 6243SOL    HW230789   2.195   1.204   4.110
 6244SOL     OW30790   3.018   0.339   3.788
 6244SOL    HW130791   3.079   0.261   3.803
 6244SOL    HW230792   2.968   0.360   3.872
 6245SOL     OW30793   2.231   0.572   4.887
 6245SOL    HW130794   2.213   0.474   4.893
 6245SOL    HW230795   2.144   0.621   4.885
 6246SOL     OW30796   3.330   0.790   4.910
 6246SOL    HW130797   3.398   0.855   4.875
 6246SOL    HW230798   3.360   0.757   5.000
 6247SOL     OW30799   2.231   0.319   4.161
 6247SOL    HW130800   2.175   0.327   4.243
 6247SOL    HW230801   2.237   0.409   4.116
 6248SOL     OW30802   3.389   1.736   5.028
 6248SOL    HW130803   3.309   1.745   4.969
 6248SOL    HW230804   3.472   1.730   4.972
 6249SOL     OW30805   3.588   0.564   4.993
 6249SOL    HW130806   3.670   0.564   5.051
 6249SOL    HW230807   3.512   0.606   5.043
 6250SOL     OW30808   3.640   1.731   4.883
 6250SOL    HW130809   3.672   1.777   4.966
 6250SOL    HW230810   3.719   1.704   4.828
 6251SOL     OW30811   2.750   0.475   4.396
 6251SOL    HW130812   2.829   0.524   4.432
 6251SOL    HW230813   2.689   0.539   4.350
 6252SOL     OW30814   3.071   0.967   3.829
 6252SOL    HW130815   3.099   0.935   3.920
 6252SOL    HW230816   3.011   0.899   3.787
 6253SOL     OW30817   2.846   0.382   5.446
 6253SOL    HW130818   2.905   0.372   5.527
 6253SOL    HW230819   2.750   0.378   5.474
 6254SOL     OW30820   3.456   0.586   4.012
 6254SOL    HW130821   3.427   0.588   3.916
 6254SOL    HW230822   3.518   0.509   4.026
 6255SOL     OW30823   2.841   1.808   3.815
 6255SOL    HW130824   2.878   1.755   3.738
 6255SOL    HW230825   2.858   1.758   3.900
 6256SOL     OW30826   2.631   0.131   5.427
 6256SOL    HW130827   2.622   0.032   5.422
 6256SOL    HW230828   2.638   0.159   5.523
 6257SOL     OW30829   2.930   1.342   5.431
 6257SOL    HW130830   2.969   1.250   5.426
 6257SOL    HW230831   2.878   1.361   5.348
 6258SOL     OW30832   2.577   1.165   5.414
 6258SOL    HW130833   2.520   1.246   5.426
 6258SOL    HW230834   2.579   1.113   5.499
 6259SOL     OW30835   3.165   0.002   4.615
 6259SOL    HW130836   3.151   0.101   4.603
 6259SOL    HW230837   3.105   9.952   4.554
 6260SOL     OW30838   3.592   0.210   5.532
 6260SOL    HW130839   3.539   0.260   5.601
 6260SOL    HW230840   3.530   0.173   5.463
 6261SOL     OW30841   1.909   0.727   4.276
 6261SOL    HW130842   1.925   0.662   4.350
 6261SOL    HW230843   1.874   0.813   4.314
 6262SOL     OW30844   2.202   0.209   4.537
 6262SOL    HW130845   2.271   0.253   4.595
 6262SOL    HW230846   2.212   0.110   4.543
 6263SOL     OW30847   2.180   0.291   4.885
 6263SOL    HW130848   2.180   0.205   4.935
 6263SOL    HW230849   2.257   0.294   4.822
 6264SOL     OW30850   2.968   0.843   4.626
 6264SOL    HW130851   2.894   0.906   4.602
 6264SOL    HW230852   2.960   0.760   4.572
 6265SOL     OW30853   2.075   1.501   4.092
 6265SOL    HW130854   2.093   1.410   4.128
 6265SOL    HW230855   2.129   1.515   4.009
 6266SOL     OW30856   3.295   1.372   4.941
 6266SOL    HW130857   3.254   1.410   4.858
 6266SOL    HW230858   3.230   1.380   5.017
 6267SOL     OW30859   2.061   1.600   4.358
 6267SOL    HW130860   1.965   1.617   4.384
 6267SOL    HW230861   2.066   1.580   4.261
 6268SOL     OW30862   3.570   1.391   4.972
 6268SOL    HW130863   3.597   1.434   5.059
 6268SOL    HW230864   3.470   1.387   4.967
 6269SOL     OW30865   2.303   0.949   3.743
 6269SOL    HW130866   2.249   0.994   3.671
 6269SOL    HW230867   2.283   0.992   3.831
 6270SOL     OW30868   2.802   1.142   5.008
 6270SOL    HW130869   2.861   1.064   4.985
 6270SOL    HW230870   2.745   1.164   4.929
 6271SOL     OW30871   1.898   0.823   3.848
 6271SOL    HW130872   1.965   0.758   3.812
 6271SOL    HW230873   1.841   0.778   3.916
 6272SOL     OW30874   3.422   0.883   4.126
 6272SOL    HW130875   3.455   0.790   4.108
 6272SOL    HW230876   3.463   0.946   4.060
 6273SOL     OW30877   2.688   1.837   4.694
 6273SOL    HW130878   2.738   1.753   4.671
 6273SOL    HW230879   2.610   1.815   4.753
 6274SOL     OW30880   2.578   0.941   3.777
 6274SOL    HW130881   2.613   0.853   3.810
 6274SOL    HW230882   2.480   0.934   3.761
 6275SOL     OW30883   3.227   0.494   4.138
 6275SOL    HW130884   3.153   0.539   4.088
 6275SOL    HW230885   3.315   0.527   4.105
 6276SOL     OW30886   2.146   0.640   5.200
 6276SOL    HW130887   2.126   0.552   5.156
 6276SOL    HW230888   2.112   0.639   5.294
 6277SOL     OW30889   2.024   0.351   5.119
 6277SOL    HW130890   2.071   0.340   5.031
 6277SOL    HW230891   1.926   0.334   5.107
 6278SOL     OW30892   2.903   0.889   4.938
 6278SOL    HW130893   2.930   0.864   4.845
 6278SOL    HW230894   2.822   0.838   4.964
 6279SOL     OW30895   3.594   0.344   4.006
 6279SOL    HW130896   3.674   0.323   3.949
 6279SOL    HW230897   3.570   0.263   4.060
 6280SOL     OW30898   2.765   1.574   4.652
 6280SOL    HW130899   2.826   1.538   4.581
 6280SOL    HW230900   2.670   1.567   4.620
 6281SOL     OW30901   2.643   0.443   3.940
 6281SOL    HW130902   2.580   0.415   4.012
 6281SOL    HW230903   2.737   0.427   3.969
 6282SOL     OW30904   2.782   1.321   3.822
 6282SOL    HW130905   2.829   1.286   3.904
 6282SOL    HW230906   2.844   1.315   3.743
 6283SOL     OW30907   3.601   1.677   4.323
 6283SOL    HW130908   3.633   1.770   4.341
 6283SOL    HW230909   3.572   1.670   4.228
 6284SOL     OW30910   3.007   0.955   4.268
 6284SOL    HW130911   3.052   0.999   4.346
 6284SOL    HW230912   2.913   0.987   4.262
 6285SOL     OW30913   2.686   1.652   5.333
 6285SOL    HW130914   2.640   1.596   5.264
 6285SOL    HW230915   2.688   1.603   5.420
 6286SOL     OW30916   3.151   1.030   4.492
 6286SOL    HW130917   3.124   0.943   4.532
 6286SOL    HW230918   3.125   1.105   4.554
 6287SOL     OW30919   2.178   1.108   4.603
 6287SOL    HW130920   2.087   1.150   4.595
 6287SOL    HW230921   2.196   1.086   4.699
 6288SOL     OW30922   2.746   1.031   4.235
 6288SOL    HW130923   2.704   0.955   4.185
 6288SOL    HW230924   2.687   1.056   4.312
 6289SOL     OW30925   3.097   1.381   5.132
 6289SOL    HW130926   3.143   1.460   5.173
 6289SOL    HW230927   2.998   1.391   5.142
 6290SOL     OW30928   1.895   0.359   4.124
 6290SOL    HW130929   1.948   0.385   4.043
 6290SOL    HW230930   1.953   0.364   4.205
 6291SOL     OW30931   3.493   1.816   3.837
 6291SOL    HW130932   3.581   1.864   3.832
 6291SOL    HW230933   3.479   1.764   3.753
 6292SOL     OW30934   2.686   0.771   5.067
 6292SOL    HW130935   2.671   0.852   5.123
 6292SOL    HW230936   2.718   0.696   5.125
 6293SOL     OW30937   1.925   1.880   5.047
 6293SOL    HW130938   1.877   1.967   5.046
 6293SOL    HW230939   1.906   1.831   5.132
 6294SOL     OW30940   2.618   0.825   4.102
 6294SOL    HW130941   2.523   0.853   4.085
 6294SOL    HW230942   2.656   0.787   4.018
 6295SOL     OW30943   2.217   0.624   4.613
 6295SOL    HW130944   2.274   0.569   4.553
 6295SOL    HW230945   2.240   0.605   4.708
 6296SOL     OW30946   2.175   1.793   3.906
 6296SOL    HW130947   2.259   1.828   3.864
 6296SOL    HW230948   2.182   1.800   4.005
 6297SOL     OW30949   3.156   1.753   4.878
 6297SOL    HW130950   3.169   1.785   4.784
 6297SOL    HW230951   3.077   1.692   4.882
 6298SOL     OW30952   1.916   1.220   4.641
 6298SOL    HW130953   1.833   1.215   4.586
 6298SOL    HW230954   1.910   1.156   4.717
 6299SOL     OW30955   2.697   0.034   4.007
 6299SOL    HW130956   2.719   9.951   3.956
 6299SOL    HW230957   2.609   0.022   4.053
 6300SOL     OW30958   1.882   1.165   4.207
 6300SOL    HW130959   1.972   1.206   4.224
 6300SOL    HW230960   1.879   1.129   4.114
 6301SOL     OW30961   3.343   0.343   5.263
 6301SOL    HW130962   3.266   0.396   5.227
 6301SOL    HW230963   3.379   0.388   5.345
 6302SOL     OW30964   3.106   0.276   4.588
 6302SOL    HW130965   3.133   0.333   4.510
 6302SOL    HW230966   3.144   0.316   4.672
 6303SOL     OW30967   3.173   0.130   3.881
 6303SOL    HW130968   3.140   0.036   3.870
 6303SOL    HW230969   3.183   0.150   3.978
 6304SOL     OW30970   3.443   0.094   5.330
 6304SOL    HW130971   3.455   0.035   5.250
 6304SOL    HW230972   3.396   0.178   5.302
 6305SOL     OW30973   2.599   0.253   4.394
 6305SOL    HW130974   2.587   0.197   4.476
 6305SOL    HW230975   2.660   0.329   4.414
 6306SOL     OW30976   3.115   0.679   4.794
 6306SOL    HW130977   3.076   0.745   4.730
 6306SOL    HW230978   3.193   0.720   4.841
 6307SOL     OW30979   3.473   0.127   4.119
 6307SOL    HW130980   3.493   0.054   4.184
 6307SOL    HW230981   3.378   0.154   4.128
 6308SOL     OW30982   2.428   1.413   5.477
 6308SOL    HW130983   2.383   1.479   5.417
 6308SOL    HW230984   2.517   1.450   5.505
 6309SOL     OW30985   2.263   1.119   5.320
 6309SOL    HW130986   2.326   1.083   5.251
 6309SOL    HW230987   2.249   1.217   5.304
 6310SOL     OW30988   1.991   1.421   4.820
 6310SOL    HW130989   1.970   1.359   4.744
 6310SOL    HW230990   1.910   1.433   4.877
 6311SOL     OW30991   2.965   0.596   4.511
 6311SOL    HW130992   3.048   0.549   4.480
 6311SOL    HW230993   2.935   0.556   4.598
 6312SOL     OW30994   3.599   0.646   5.348
 6312SOL    HW130995   3.610   0.738   5.310
 6312SOL    HW230996   3.665   0.584   5.305
 6313SOL     OW30997   3.213   0.420   4.799
 6313SOL    HW130998   3.186   0.516   4.789
 6313SOL    HW230999   3.173   0.383   4.883
 6314SOL     OW31000   3.413   0.487   5.482
 6314SOL    HW131001   3.489   0.544   5.451
 6314SOL    HW231002   3.435   0.448   5.572
 6315SOL     OW31003   3.155   0.863   4.068
 6315SOL    HW131004   3.098   0.897   4.142
 6315SOL    HW231005   3.251   0.871   4.093
 6316SOL     OW31006   3.367   1.095   4.323
 6316SOL    HW131007   3.389   1.021   4.259
 6316SOL    HW231008   3.286   1.070   4.376
 6317SOL     OW31009   3.630   0.880   5.220
 6317SOL    HW131010   3.560   0.930   5.170
 6317SOL    HW231011   3.706   0.942   5.243
 6318SOL     OW31012   3.401   0.266   3.815
 6318SOL    HW131013   3.454   0.274   3.900
 6318SOL    HW231014   3.321   0.208   3.831
 6319SOL     OW31015   2.574   1.510   5.123
 6319SOL    HW131016   2.515   1.587   5.101
 6319SOL    HW231017   2.540   1.428   5.077
 6320SOL     OW31018   2.010   0.336   5.395
 6320SOL    HW131019   2.014   0.338   5.296
 6320SOL    HW231020   1.925   0.292   5.425
 6321SOL     OW31021   1.877   1.755   5.296
 6321SOL    HW131022   1.962   1.758   5.349
 6321SOL    HW231023   1.815   1.826   5.329
 6322SOL     OW31024   2.045   0.351   4.366
 6322SOL    HW131025   2.020   0.436   4.412
 6322SOL    HW231026   2.103   0.296   4.427
 6323SOL     OW31027   3.245   1.592   5.219
 6323SOL    HW131028   3.177   1.656   5.253
 6323SOL    HW231029   3.303   1.637   5.150
 6324SOL     OW31030   2.253   0.567   4.041
 6324SOL    HW131031   2.312   0.610   3.972
 6324SOL    HW231032   2.226   0.634   4.109
 6325SOL     OW31033   3.479   0.226   5.053
 6325SOL    HW131034   3.430   0.282   5.120
 6325SOL    HW231035   3.485   0.277   4.966
 6326SOL     OW31036   2.243   1.805   4.429
 6326SOL    HW131037   2.175   1.731   4.425
 6326SOL    HW231038   2.260   1.840   4.336
 6327SOL     OW31039   2.209   1.315   4.960
 6327SOL    HW131040   2.202   1.338   5.057
 6327SOL    HW231041   2.134   1.358   4.910
 6328SOL     OW31042   3.003   1.594   5.522
 6328SOL    HW131043   2.973   1.503   5.494
 6328SOL    HW231044   3.019   1.650   5.441
 6329SOL     OW31045   2.591   1.307   4.171
 6329SOL    HW131046   2.592   1.253   4.087
 6329SOL    HW231047   2.593   1.245   4.250
 6330SOL     OW31048   2.205   0.860   4.473
 6330SOL    HW131049   2.220   0.946   4.520
 6330SOL    HW231050   2.230   0.784   4.532
 6331SOL     OW31051   2.065   0.415   3.912
 6331SOL    HW131052   2.110   0.342   3.860
 6331SOL    HW231053   2.134   0.470   3.959
 6332SOL     OW31054   1.964   0.576   4.502
 6332SOL    HW131055   1.886   0.610   4.555
 6332SOL    HW231056   2.049   0.600   4.549
 6333SOL     OW31057   2.294   1.133   3.968
 6333SOL    HW131058   2.386   1.170   3.953
 6333SOL    HW231059   2.229   1.180   3.907
 6334SOL     OW31060   2.941   0.724   3.735
 6334SOL    HW131061   2.894   0.779   3.666
 6334SOL    HW231062   3.010   0.667   3.690
 6335SOL     OW31063   2.694   0.707   3.866
 6335SOL    HW131064   2.784   0.707   3.822
 6335SOL    HW231065   2.664   0.612   3.881
 6336SOL     OW31066   3.218   0.218   4.136
 6336SOL    HW131067   3.157   0.186   4.209
 6336SOL    HW231068   3.221   0.318   4.137
 6337SOL     OW31069   3.139   0.528   5.224
 6337SOL    HW131070   3.129   0.523   5.324
 6337SOL    HW231071   3.093   0.610   5.190
 6338SOL     OW31072   1.931   9.895   3.907
 6338SOL    HW131073   2.027   9.868   3.908
 6338SOL    HW231074   1.917   9.972   3.969
 6339SOL     OW31075   2.190   1.056   4.872
 6339SOL    HW131076   2.192   0.988   4.946
 6339SOL    HW231077   2.207   1.147   4.910
 6340SOL     OW31078   3.524   1.053   3.938
 6340SOL    HW131079   3.603   1.113   3.954
 6340SOL    HW231080   3.508   1.045   3.840
 6341SOL     OW31081   2.473   0.733   4.876
 6341SOL    HW131082   2.531   0.745   4.956
 6341SOL    HW231083   2.389   0.686   4.904
 6342SOL     OW31084   2.682   1.011   5.216
 6342SOL    HW131085   2.731   1.064   5.147
 6342SOL    HW231086   2.648   1.072   5.288
 6343SOL     OW31087   3.013   1.080   5.418
 6343SOL    HW131088   2.934   1.019   5.423
 6343SOL    HW231089   3.077   1.058   5.491
 6344SOL     OW31090   3.042   0.158   4.330
 6344SOL    HW131091   3.033   0.177   4.428
 6344SOL    HW231092   2.951   0.163   4.287
 6345SOL     OW31093   3.048   1.756   5.307
 6345SOL    HW131094   2.972   1.782   5.247
 6345SOL    HW231095   3.093   1.839   5.341
 6346SOL     OW31096   2.582   0.123   4.645
 6346SOL    HW131097   2.558   0.043   4.699
 6346SOL    HW231098   2.682   0.135   4.645
 6347SOL     OW31099   2.184   1.840   4.953
 6347SOL    HW131100   2.173   1.775   4.878
 6347SOL    HW231101   2.095   1.858   4.996
 6348SOL     OW31102   2.817   1.240   4.569
 6348SOL    HW131103   2.842   1.323   4.520
 6348SOL    HW231104   2.897   1.204   4.618
 6349SOL     OW31105   2.529   0.953   4.669
 6349SOL    HW131106   2.552   0.880   4.606
 6349SOL    HW231107   2.485   0.915   4.750
 6350SOL     OW31108   1.918   1.031   4.836
 6350SOL    HW131109   2.015   1.037   4.858
 6350SOL    HW231110   1.904   0.963   4.764
 6351SOL     OW31111   2.161   0.054   4.100
 6351SOL    HW131112   2.192   0.148   4.113
 6351SOL    HW231113   2.063   0.049   4.119
 6352SOL     OW31114   2.560   0.681   5.379
 6352SOL    HW131115   2.503   0.714   5.303
 6352SOL    HW231116   2.649   0.652   5.344
 6353SOL     OW31117   1.922   1.081   3.946
 6353SOL    HW131118   1.928   0.987   3.913
 6353SOL    HW231119   1.986   1.138   3.895
 6354SOL     OW31120   2.644   1.181   4.781
 6354SOL    HW131121   2.599   1.099   4.745
 6354SOL    HW231122   2.702   1.221   4.711
 6355SOL     OW31123   3.036   0.631   3.994
 6355SOL    HW131124   3.076   0.715   4.029
 6355SOL    HW231125   2.999   0.647   3.903
 6356SOL     OW31126   3.410   1.456   5.390
 6356SOL    HW131127   3.375   1.369   5.424
 6356SOL    HW231128   3.343   1.498   5.329
 6357SOL     OW31129   2.106   0.878   5.070
 6357SOL    HW131130   2.120   0.789   5.113
 6357SOL    HW231131   2.066   0.941   5.136
 6358SOL     OW31132   2.653   1.548   3.738
 6358SOL    HW131133   2.627   1.610   3.811
 6358SOL    HW231134   2.708   1.473   3.775
 6359SOL     OW31135   2.451   1.704   4.770
 6359SOL    HW131136   2.471   1.661   4.682
 6359SOL    HW231137   2.356   1.687   4.795
 6360SOL     OW31138   2.593   1.130   4.448
 6360SOL    HW131139   2.672   1.178   4.485
 6360SOL    HW231140   2.558   1.065   4.515
 6361SOL     OW31141   2.789   1.500   4.218
 6361SOL    HW131142   2.836   1.532   4.136
 6361SOL    HW231143   2.724   1.428   4.193
 6362SOL     OW31144   1.960   0.868   4.613
 6362SOL    HW131145   2.045   0.861   4.563
 6362SOL    HW231146   1.886   0.896   4.551
 6363SOL     OW31147   1.883   0.935   5.497
 6363SOL    HW131148   1.784   0.935   5.486
 6363SOL    HW231149   1.907   0.884   5.580
 6364SOL     OW31150   2.818   1.804   5.146
 6364SOL    HW131151   2.778   1.743   5.215
 6364SOL    HW231152   2.747   1.868   5.115
 6365SOL     OW31153   3.057   1.189   4.696
 6365SOL    HW131154   3.074   1.287   4.705
 6365SOL    HW231155   3.103   1.140   4.769
 6366SOL     OW31156   2.390   0.444   5.494
 6366SOL    HW131157   2.454   0.434   5.418
 6366SOL    HW231158   2.384   0.540   5.520
 6367SOL     OW31159   2.359   0.886   4.063
 6367SOL    HW131160   2.331   0.979   4.039
 6367SOL    HW231161   2.289   0.844   4.120
 6368SOL     OW31162   3.453   1.038   4.775
 6368SOL    HW131163   3.468   1.089   4.691
 6368SOL    HW231164   3.360   1.054   4.808
 6369SOL     OW31165   3.091   0.339   5.030
 6369SOL    HW131166   3.101   0.403   5.106
 6369SOL    HW231167   3.084   0.246   5.065
 6370SOL     OW31168   1.879   0.085   4.104
 6370SOL    HW131169   1.790   0.057   4.141
 6370SOL    HW231170   1.884   0.185   4.104
 6371SOL     OW31171   2.958   0.122   5.417
 6371SOL    HW131172   3.051   0.148   5.391
 6371SOL    HW231173   2.899   0.203   5.417
 6372SOL     OW31174   2.294   1.608   5.323
 6372SOL    HW131175   2.231   1.669   5.370
 6372SOL    HW231176   2.340   1.658   5.250
 6373SOL     OW31177   3.633   1.482   5.226
 6373SOL    HW131178   3.682   1.564   5.254
 6373SOL    HW231179   3.555   1.467   5.287
 6374SOL     OW31180   2.869   0.543   4.765
 6374SOL    HW131181   2.951   0.591   4.796
 6374SOL    HW231182   2.846   0.471   4.830
 6375SOL     OW31183   2.314   1.493   4.375
 6375SOL    HW131184   2.316   1.393   4.385
 6375SOL    HW231185   2.219   1.524   4.375
 6376SOL     OW31186   2.924   1.602   4.873
 6376SOL    HW131187   2.861   1.592   4.796
 6376SOL    HW231188   2.873   1.622   4.956
 6377SOL     OW31189   2.116   1.789   5.450
 6377SOL    HW131190   2.158   1.879   5.439
 6377SOL    HW231191   2.107   1.767   5.547
 6378SOL     OW31192   1.960   1.306   5.353
 6378SOL    HW131193   1.944   1.212   5.320
 6378SOL    HW231194   1.889   1.366   5.316
 6379SOL     OW31195   2.140   1.649   4.754
 6379SOL    HW131196   2.094   1.564   4.780
 6379SOL    HW231197   2.160   1.649   4.656
 6380SOL     OW31198   2.853   0.164   4.651
 6380SOL    HW131199   2.936   0.215   4.629
 6380SOL    HW231200   2.862   0.124   4.742
 6381SOL     OW31201   2.875   1.215   4.056
 6381SOL    HW131202   2.962   1.246   4.094
 6381SOL    HW231203   2.833   1.149   4.119
 6382SOL     OW31204   2.568   1.179   3.923
 6382SOL    HW131205   2.637   1.240   3.884
 6382SOL    HW231206   2.582   1.086   3.889
 6383SOL     OW31207   2.667   0.209   3.795
 6383SOL    HW131208   2.696   0.150   3.870
 6383SOL    HW231209   2.653   0.302   3.830
 6384SOL     OW31210   2.374   0.485   4.442
 6384SOL    HW131211   2.412   0.393   4.447
 6384SOL    HW231212   2.429   0.540   4.378
 6385SOL     OW31213   2.428   1.046   5.116
 6385SOL    HW131214   2.517   1.020   5.153
 6385SOL    HW231215   2.438   1.132   5.065
 6386SOL     OW31216   3.552   1.117   5.017
 6386SOL    HW131217   3.581   1.212   5.007
 6386SOL    HW231218   3.528   1.080   4.927
 6387SOL     OW31219   2.103   1.241   3.805
 6387SOL    HW131220   2.049   1.247   3.721
 6387SOL    HW231221   2.148   1.328   3.822
 6388SOL     OW31222   2.536   1.701   3.940
 6388SOL    HW131223   2.471   1.760   3.893
 6388SOL    HW231224   2.486   1.639   4.001
 6389SOL     OW31225   3.123   1.113   5.169
 6389SOL    HW131226   3.082   1.091   5.257
 6389SOL    HW231227   3.112   1.210   5.150
 6390SOL     OW31228   2.404   1.745   5.107
 6390SOL    HW131229   2.473   1.818   5.107
 6390SOL    HW231230   2.327   1.773   5.051
 6391SOL     OW31231   2.042   0.600   5.452
 6391SOL    HW131232   2.034   0.501   5.444
 6391SOL    HW231233   2.092   0.623   5.536
 6392SOL     OW31234   3.512   1.533   4.732
 6392SOL    HW131235   3.541   1.623   4.766
 6392SOL    HW231236   3.532   1.464   4.801
 6393SOL     OW31237   1.814   0.957   4.384
 6393SOL    HW131238   1.846   1.034   4.328
 6393SOL    HW231239   1.714   0.959   4.389
 6394SOL     OW31240   2.392   0.771   5.186
 6394SOL    HW131241   2.304   0.724   5.189
 6394SOL    HW231242   2.380   0.863   5.148
 6395SOL     OW31243   3.507   1.202   4.545
 6395SOL    HW131244   3.494   1.301   4.536
 6395SOL    HW231245   3.468   1.156   4.465
 6396SOL     OW31246   2.580   0.541   4.713
 6396SOL    HW131247   2.679   0.533   4.726
 6396SOL    HW231248   2.545   0.612   4.774
 6397SOL     OW31249   2.482   1.287   4.982
 6397SOL    HW131250   2.388   1.306   4.955
 6397SOL    HW231251   2.535   1.260   4.901
 6398SOL     OW31252   2.001   0.725   4.860
 6398SOL    HW131253   2.026   0.794   4.928
 6398SOL    HW231254   1.988   0.769   4.771
 6399SOL     OW31255   2.191   1.374   5.227
 6399SOL    HW131256   2.231   1.460   5.258
 6399SOL    HW231257   2.104   1.359   5.274
 6400SOL     OW31258   3.499   1.705   5.482
 6400SOL    HW131259   3.469   1.611   5.468
 6400SOL    HW231260   3.467   1.762   5.406
 6401SOL     OW31261   3.127   1.292   4.129
 6401SOL    HW131262   3.207   1.325   4.179
 6401SOL    HW231263   3.156   1.249   4.044
 6402SOL     OW31264   2.502   0.363   4.161
 6402SOL    HW131265   2.406   0.336   4.153
 6402SOL    HW231266   2.543   0.315   4.239
 6403SOL     OW31267   3.016   0.765   5.173
 6403SOL    HW131268   3.078   0.819   5.231
 6403SOL    HW231269   2.994   0.818   5.091
 6404SOL     OW31270   2.582   0.739   4.515
 6404SOL    HW131271   2.580   0.661   4.577
 6404SOL    HW231272   2.567   0.708   4.421
 6405SOL     OW31273   3.117   1.450   4.742
 6405SOL    HW131274   3.047   1.501   4.792
 6405SOL    HW231275   3.138   1.498   4.656
 6406SOL     OW31276   3.196   0.473   4.414
 6406SOL    HW131277   3.198   0.478   4.314
 6406SOL    HW231278   3.285   0.500   4.451
 6407SOL     OW31279   2.918   1.454   6.296
 6407SOL    HW131280   3.014   1.484   6.300
 6407SOL    HW231281   2.881   1.472   6.205
 6408SOL     OW31282   3.427   1.279   6.122
 6408SOL    HW131283   3.425   1.340   6.201
 6408SOL    HW231284   3.520   1.244   6.110
 6409SOL     OW31285   3.485   0.588   6.976
 6409SOL    HW131286   3.394   0.583   7.017
 6409SOL    HW231287   3.532   0.669   7.010
 6410SOL     OW31288   2.200   0.279   5.583
 6410SOL    HW131289   2.126   0.280   5.515
 6410SOL    HW231290   2.275   0.337   5.552
 6411SOL     OW31291   3.181   1.540   6.348
 6411SOL    HW131292   3.193   1.638   6.364
 6411SOL    HW231293   3.270   1.498   6.332
 6412SOL     OW31294   3.019   0.116   6.898
 6412SOL    HW131295   2.970   0.052   6.957
 6412SOL    HW231296   3.103   0.072   6.864
 6413SOL     OW31297   2.812   0.883   7.291
 6413SOL    HW131298   2.788   0.846   7.201
 6413SOL    HW231299   2.729   0.912   7.339
 6414SOL     OW31300   2.413   1.488   5.954
 6414SOL    HW131301   2.372   1.520   6.039
 6414SOL    HW231302   2.485   1.421   5.975
 6415SOL     OW31303   2.389   0.102   5.680
 6415SOL    HW131304   2.470   0.161   5.675
 6415SOL    HW231305   2.309   0.154   5.649
 6416SOL     OW31306   3.442   1.059   7.095
 6416SOL    HW131307   3.349   1.085   7.067
 6416SOL    HW231308   3.509   1.109   7.040
 6417SOL     OW31309   3.295   1.069   6.770
 6417SOL    HW131310   3.246   1.073   6.857
 6417SOL    HW231311   3.337   1.158   6.751
 6418SOL     OW31312   2.840   1.355   7.011
 6418SOL    HW131313   2.757   1.410   7.001
 6418SOL    HW231314   2.836   1.277   6.949
 6419SOL     OW31315   2.338   1.231   6.255
 6419SOL    HW131316   2.286   1.180   6.323
 6419SOL    HW231317   2.434   1.206   6.261
 6420SOL     OW31318   2.548   0.630   6.130
 6420SOL    HW131319   2.574   0.705   6.069
 6420SOL    HW231320   2.521   0.550   6.075
 6421SOL     OW31321   2.277   1.417   5.714
 6421SOL    HW131322   2.330   1.424   5.630
 6421SOL    HW231323   2.330   1.454   5.790
 6422SOL     OW31324   2.396   0.326   6.572
 6422SOL    HW131325   2.450   0.409   6.564
 6422SOL    HW231326   2.455   0.246   6.558
 6423SOL     OW31327   2.177   0.773   6.028
 6423SOL    HW131328   2.214   0.806   6.114
 6423SOL    HW231329   2.082   0.744   6.041
 6424SOL     OW31330   2.654   1.717   6.166
 6424SOL    HW131331   2.706   1.641   6.127
 6424SOL    HW231332   2.641   1.787   6.096
 6425SOL     OW31333   3.592   1.623   5.906
 6425SOL    HW131334   3.686   1.598   5.884
 6425SOL    HW231335   3.559   1.690   5.840
 6426SOL     OW31336   3.470   0.339   6.649
 6426SOL    HW131337   3.518   0.424   6.670
 6426SOL    HW231338   3.372   0.356   6.642
 6427SOL     OW31339   2.905   0.343   5.913
 6427SOL    HW131340   2.989   0.381   5.951
 6427SOL    HW231341   2.865   0.277   5.976
 6428SOL     OW31342   2.028   1.039   7.151
 6428SOL    HW131343   2.118   1.073   7.177
 6428SOL    HW231344   1.982   1.001   7.231
 6429SOL     OW31345   2.365   0.721   5.562
 6429SOL    HW131346   2.336   0.817   5.560
 6429SOL    HW231347   2.444   0.709   5.502
 6430SOL     OW31348   2.490   1.650   6.370
 6430SOL    HW131349   2.551   1.691   6.302
 6430SOL    HW231350   2.421   1.593   6.325
 6431SOL     OW31351   2.814   0.642   7.096
 6431SOL    HW131352   2.838   0.551   7.131
 6431SOL    HW231353   2.893   0.683   7.052
 6432SOL     OW31354   3.448   1.443   6.349
 6432SOL    HW131355   3.466   1.473   6.443
 6432SOL    HW231356   3.499   1.500   6.285
 6433SOL     OW31357   2.173   1.238   6.033
 6433SOL    HW131358   2.233   1.234   6.114
 6433SOL    HW231359   2.220   1.198   5.955
 6434SOL     OW31360   3.023   0.325   5.660
 6434SOL    HW131361   3.095   0.256   5.670
 6434SOL    HW231362   2.974   0.335   5.746
 6435SOL     OW31363   2.191   0.554   6.814
 6435SOL    HW131364   2.184   0.461   6.780
 6435SOL    HW231365   2.115   0.609   6.778
 6436SOL     OW31366   3.274   0.796   6.831
 6436SOL    HW131367   3.291   0.893   6.809
 6436SOL    HW231368   3.356   0.757   6.873
 6437SOL     OW31369   2.225   0.275   5.995
 6437SOL    HW131370   2.178   0.293   6.081
 6437SOL    HW231371   2.180   0.326   5.921
 6438SOL     OW31372   3.402   1.737   6.871
 6438SOL    HW131373   3.326   1.743   6.805
 6438SOL    HW231374   3.489   1.738   6.821
 6439SOL     OW31375   3.594   0.566   6.723
 6439SOL    HW131376   3.690   0.594   6.717
 6439SOL    HW231377   3.561   0.579   6.816
 6440SOL     OW31378   3.644   1.743   6.737
 6440SOL    HW131379   3.680   1.777   6.824
 6440SOL    HW231380   3.718   1.741   6.669
 6441SOL     OW31381   2.739   0.467   6.249
 6441SOL    HW131382   2.818   0.508   6.294
 6441SOL    HW231383   2.685   0.539   6.205
 6442SOL     OW31384   3.091   0.972   5.673
 6442SOL    HW131385   3.127   0.941   5.761
 6442SOL    HW231386   3.035   0.900   5.632
 6443SOL     OW31387   2.864   0.328   7.315
 6443SOL    HW131388   2.909   0.288   7.395
 6443SOL    HW231389   2.765   0.319   7.326
 6444SOL     OW31390   3.624   0.702   5.901
 6444SOL    HW131391   3.628   0.604   5.878
 6444SOL    HW231392   3.645   0.714   5.998
 6445SOL     OW31393   2.848   1.777   5.684
 6445SOL    HW131394   2.883   1.721   5.608
 6445SOL    HW231395   2.860   1.727   5.769
 6446SOL     OW31396   2.668   0.094   7.211
 6446SOL    HW131397   2.731   0.022   7.185
 6446SOL    HW231398   2.665   0.102   7.311
 6447SOL     OW31399   3.544   0.681   6.477
 6447SOL    HW131400   3.525   0.778   6.491
 6447SOL    HW231401   3.551   0.636   6.566
 6448SOL     OW31402   2.941   1.315   7.274
 6448SOL    HW131403   2.986   1.226   7.268
 6448SOL    HW231404   2.893   1.334   7.188
 6449SOL     OW31405   2.600   1.147   7.262
 6449SOL    HW131406   2.544   1.229   7.272
 6449SOL    HW231407   2.594   1.091   7.344
 6450SOL     OW31408   3.249   0.025   6.497
 6450SOL    HW131409   3.179   0.095   6.481
 6450SOL    HW231410   3.323   0.037   6.431
 6451SOL     OW31411   1.925   0.711   6.123
 6451SOL    HW131412   1.939   0.646   6.198
 6451SOL    HW231413   1.897   0.800   6.161
 6452SOL     OW31414   2.231   0.209   6.377
 6452SOL    HW131415   2.286   0.253   6.447
 6452SOL    HW231416   2.238   0.109   6.387
 6453SOL     OW31417   2.162   0.291   6.729
 6453SOL    HW131418   2.163   0.203   6.777
 6453SOL    HW231419   2.243   0.298   6.671
 6454SOL     OW31420   2.899   0.824   6.462
 6454SOL    HW131421   2.806   0.847   6.434
 6454SOL    HW231422   2.923   0.733   6.430
 6455SOL     OW31423   2.080   1.478   5.930
 6455SOL    HW131424   2.105   1.390   5.969
 6455SOL    HW231425   2.130   1.492   5.845
 6456SOL     OW31426   3.326   1.353   6.788
 6456SOL    HW131427   3.290   1.394   6.704
 6456SOL    HW231428   3.256   1.357   6.859
 6457SOL     OW31429   2.056   1.603   6.180
 6457SOL    HW131430   1.959   1.603   6.201
 6457SOL    HW231431   2.070   1.575   6.085
 6458SOL     OW31432   3.593   1.416   6.846
 6458SOL    HW131433   3.614   1.458   6.934
 6458SOL    HW231434   3.494   1.404   6.839
 6459SOL     OW31435   2.328   0.994   5.561
 6459SOL    HW131436   2.302   1.038   5.475
 6459SOL    HW231437   2.295   1.049   5.638
 6460SOL     OW31438   2.813   1.135   6.840
 6460SOL    HW131439   2.861   1.053   6.811
 6460SOL    HW231440   2.753   1.167   6.767
 6461SOL     OW31441   1.943   0.812   5.733
 6461SOL    HW131442   2.027   0.759   5.740
 6461SOL    HW231443   1.872   0.768   5.788
 6462SOL     OW31444   3.455   0.922   5.948
 6462SOL    HW131445   3.511   0.841   5.935
 6462SOL    HW231446   3.471   0.986   5.873
 6463SOL     OW31447   2.736   1.819   6.566
 6463SOL    HW131448   2.750   1.727   6.527
 6463SOL    HW231449   2.642   1.826   6.601
 6464SOL     OW31450   2.597   0.939   5.620
 6464SOL    HW131451   2.622   0.850   5.659
 6464SOL    HW231452   2.499   0.940   5.601
 6465SOL     OW31453   3.168   0.424   5.977
 6465SOL    HW131454   3.137   0.500   5.920
 6465SOL    HW231455   3.268   0.427   5.985
 6466SOL     OW31456   2.154   0.676   7.070
 6466SOL    HW131457   2.160   0.601   7.004
 6466SOL    HW231458   2.113   0.643   7.155
 6467SOL     OW31459   1.974   0.289   6.970
 6467SOL    HW131460   2.012   0.338   6.891
 6467SOL    HW231461   1.878   0.270   6.954
 6468SOL     OW31462   2.876   0.876   6.745
 6468SOL    HW131463   2.889   0.858   6.648
 6468SOL    HW231464   2.791   0.833   6.775
 6469SOL     OW31465   3.440   0.438   6.002
 6469SOL    HW131466   3.536   0.424   5.979
 6469SOL    HW231467   3.432   0.473   6.095
 6470SOL     OW31468   2.736   1.558   6.474
 6470SOL    HW131469   2.795   1.522   6.402
 6470SOL    HW231470   2.644   1.573   6.436
 6471SOL     OW31471   2.669   0.454   5.830
 6471SOL    HW131472   2.598   0.431   5.896
 6471SOL    HW231473   2.758   0.425   5.864
 6472SOL     OW31474   2.807   1.314   5.689
 6472SOL    HW131475   2.859   1.289   5.770
 6472SOL    HW231476   2.867   1.314   5.609
 6473SOL     OW31477   3.576   1.609   6.178
 6473SOL    HW131478   3.542   1.695   6.216
 6473SOL    HW231479   3.570   1.613   6.078
 6474SOL     OW31480   3.038   0.945   6.110
 6474SOL    HW131481   3.071   0.963   6.203
 6474SOL    HW231482   2.943   0.974   6.102
 6475SOL     OW31483   2.701   1.639   7.177
 6475SOL    HW131484   2.656   1.585   7.106
 6475SOL    HW231485   2.694   1.592   7.265
 6476SOL     OW31486   3.122   0.972   6.371
 6476SOL    HW131487   3.045   0.916   6.401
 6476SOL    HW231488   3.127   1.054   6.428
 6477SOL     OW31489   2.179   1.092   6.433
 6477SOL    HW131490   2.088   1.133   6.423
 6477SOL    HW231491   2.197   1.073   6.529
 6478SOL     OW31492   2.775   1.024   6.080
 6478SOL    HW131493   2.725   0.952   6.032
 6478SOL    HW231494   2.719   1.059   6.155
 6479SOL     OW31495   3.118   1.373   6.969
 6479SOL    HW131496   3.162   1.454   7.006
 6479SOL    HW231497   3.018   1.381   6.979
 6480SOL     OW31498   1.903   0.367   5.992
 6480SOL    HW131499   1.959   0.388   5.912
 6480SOL    HW231500   1.960   0.368   6.074
 6481SOL     OW31501   3.520   1.826   5.726
 6481SOL    HW131502   3.607   1.875   5.727
 6481SOL    HW231503   3.512   1.774   5.641
 6482SOL     OW31504   2.663   0.773   6.896
 6482SOL    HW131505   2.651   0.859   6.946
 6482SOL    HW231506   2.708   0.706   6.955
 6483SOL     OW31507   1.947   1.839   6.950
 6483SOL    HW131508   1.907   1.930   6.951
 6483SOL    HW231509   1.928   1.794   7.037
 6484SOL     OW31510   2.623   0.829   5.956
 6484SOL    HW131511   2.532   0.862   5.932
 6484SOL    HW231512   2.666   0.788   5.875
 6485SOL     OW31513   2.207   0.659   6.471
 6485SOL    HW131514   2.259   0.599   6.410
 6485SOL    HW231515   2.249   0.660   6.562
 6486SOL     OW31516   2.144   1.800   5.730
 6486SOL    HW131517   2.236   1.820   5.697
 6486SOL    HW231518   2.142   1.806   5.830
 6487SOL     OW31519   3.200   1.721   6.682
 6487SOL    HW131520   3.219   1.759   6.592
 6487SOL    HW231521   3.174   1.625   6.673
 6488SOL     OW31522   1.916   1.196   6.470
 6488SOL    HW131523   1.829   1.193   6.421
 6488SOL    HW231524   1.911   1.134   6.549
 6489SOL     OW31525   2.669   0.023   5.866
 6489SOL    HW131526   2.698   9.947   5.807
 6489SOL    HW231527   2.578   0.003   5.903
 6490SOL     OW31528   1.908   1.145   6.049
 6490SOL    HW131529   1.998   1.186   6.066
 6490SOL    HW231530   1.902   1.119   5.952
 6491SOL     OW31531   3.089   0.253   6.464
 6491SOL    HW131532   3.109   0.303   6.380
 6491SOL    HW231533   3.126   0.303   6.542
 6492SOL     OW31534   3.237   0.145   5.716
 6492SOL    HW131535   3.271   0.057   5.685
 6492SOL    HW231536   3.212   0.140   5.812
 6493SOL     OW31537   3.455   0.066   7.043
 6493SOL    HW131538   3.469   0.158   7.005
 6493SOL    HW231539   3.477   0.067   7.141
 6494SOL     OW31540   2.580   0.250   6.249
 6494SOL    HW131541   2.565   0.196   6.332
 6494SOL    HW231542   2.645   0.324   6.268
 6495SOL     OW31543   3.118   0.662   6.649
 6495SOL    HW131544   3.106   0.721   6.568
 6495SOL    HW231545   3.174   0.709   6.717
 6496SOL     OW31546   3.416   0.049   6.057
 6496SOL    HW131547   3.460   0.004   5.979
 6496SOL    HW231548   3.326   0.081   6.030
 6497SOL     OW31549   2.427   1.384   7.303
 6497SOL    HW131550   2.383   1.454   7.247
 6497SOL    HW231551   2.514   1.421   7.338
 6498SOL     OW31552   2.279   1.139   7.218
 6498SOL    HW131553   2.326   1.114   7.133
 6498SOL    HW231554   2.307   1.231   7.245
 6499SOL     OW31555   1.969   1.389   6.658
 6499SOL    HW131556   1.951   1.328   6.580
 6499SOL    HW231557   1.889   1.389   6.718
 6500SOL     OW31558   2.953   0.570   6.386
 6500SOL    HW131559   3.029   0.520   6.346
 6500SOL    HW231560   2.927   0.528   6.473
 6501SOL     OW31561   3.202   0.403   6.668
 6501SOL    HW131562   3.174   0.498   6.652
 6501SOL    HW231563   3.183   0.379   6.763
 6502SOL     OW31564   3.190   0.872   5.904
 6502SOL    HW131565   3.133   0.899   5.981
 6502SOL    HW231566   3.286   0.888   5.926
 6503SOL     OW31567   3.412   0.974   6.236
 6503SOL    HW131568   3.418   0.963   6.137
 6503SOL    HW231569   3.317   0.959   6.265
 6504SOL     OW31570   3.586   0.830   7.042
 6504SOL    HW131571   3.524   0.906   7.058
 6504SOL    HW231572   3.680   0.858   7.063
 6505SOL     OW31573   3.431   0.344   5.718
 6505SOL    HW131574   3.440   0.381   5.811
 6505SOL    HW231575   3.359   0.274   5.717
 6506SOL     OW31576   2.583   1.488   6.976
 6506SOL    HW131577   2.520   1.563   6.959
 6506SOL    HW231578   2.552   1.406   6.927
 6507SOL     OW31579   1.990   0.321   7.241
 6507SOL    HW131580   1.987   0.308   7.141
 6507SOL    HW231581   1.911   0.277   7.283
 6508SOL     OW31582   1.900   1.702   7.186
 6508SOL    HW131583   1.986   1.716   7.236
 6508SOL    HW231584   1.823   1.708   7.250
 6509SOL     OW31585   2.057   0.345   6.219
 6509SOL    HW131586   2.029   0.427   6.268
 6509SOL    HW231587   2.118   0.291   6.277
 6510SOL     OW31588   3.266   1.583   7.054
 6510SOL    HW131589   3.201   1.645   7.098
 6510SOL    HW231590   3.320   1.634   6.986
 6511SOL     OW31591   2.178   0.668   5.760
 6511SOL    HW131592   2.256   0.685   5.701
 6511SOL    HW231593   2.198   0.702   5.852
 6512SOL     OW31594   3.464   0.311   6.927
 6512SOL    HW131595   3.484   0.404   6.957
 6512SOL    HW231596   3.480   0.303   6.829
 6513SOL     OW31597   2.161   1.852   6.266
 6513SOL    HW131598   2.132   1.758   6.249
 6513SOL    HW231599   2.249   1.850   6.313
 6514SOL     OW31600   2.207   1.311   6.778
 6514SOL    HW131601   2.202   1.339   6.874
 6514SOL    HW231602   2.128   1.348   6.729
 6515SOL     OW31603   2.991   1.576   7.363
 6515SOL    HW131604   2.970   1.484   7.333
 6515SOL    HW231605   3.020   1.632   7.285
 6516SOL     OW31606   2.599   1.296   6.027
 6516SOL    HW131607   2.608   1.237   5.946
 6516SOL    HW231608   2.605   1.241   6.110
 6517SOL     OW31609   2.236   0.864   6.280
 6517SOL    HW131610   2.220   0.950   6.327
 6517SOL    HW231611   2.246   0.790   6.348
 6518SOL     OW31612   2.093   0.410   5.799
 6518SOL    HW131613   2.122   0.355   5.721
 6518SOL    HW231614   2.119   0.505   5.784
 6519SOL     OW31615   1.962   0.566   6.355
 6519SOL    HW131616   1.879   0.595   6.402
 6519SOL    HW231617   2.042   0.592   6.409
 6520SOL     OW31618   2.327   1.161   5.804
 6520SOL    HW131619   2.427   1.165   5.803
 6520SOL    HW231620   2.290   1.246   5.767
 6521SOL     OW31621   2.959   0.722   5.583
 6521SOL    HW131622   2.907   0.776   5.517
 6521SOL    HW231623   3.021   0.660   5.535
 6522SOL     OW31624   2.713   0.708   5.726
 6522SOL    HW131625   2.802   0.707   5.681
 6522SOL    HW231626   2.689   0.615   5.754
 6523SOL     OW31627   3.166   0.145   5.978
 6523SOL    HW131628   3.114   0.106   6.054
 6523SOL    HW231629   3.165   0.245   5.984
 6524SOL     OW31630   3.228   0.574   7.061
 6524SOL    HW131631   3.152   0.640   7.059
 6524SOL    HW231632   3.198   0.489   7.019
 6525SOL     OW31633   1.791   0.071   5.715
 6525SOL    HW131634   1.726  10.000   5.743
 6525SOL    HW231635   1.850   0.094   5.793
 6526SOL     OW31636   2.203   1.048   6.706
 6526SOL    HW131637   2.199   0.988   6.785
 6526SOL    HW231638   2.215   1.142   6.736
 6527SOL     OW31639   3.505   1.053   5.707
 6527SOL    HW131640   3.584   1.007   5.667
 6527SOL    HW231641   3.447   1.091   5.634
 6528SOL     OW31642   2.435   0.697   6.742
 6528SOL    HW131643   2.502   0.734   6.807
 6528SOL    HW231644   2.357   0.659   6.792
 6529SOL     OW31645   2.676   1.008   7.042
 6529SOL    HW131646   2.733   1.061   6.978
 6529SOL    HW231647   2.661   1.061   7.125
 6530SOL     OW31648   3.026   1.050   7.235
 6530SOL    HW131649   2.942   0.997   7.250
 6530SOL    HW231650   3.105   0.996   7.264
 6531SOL     OW31651   3.013   0.048   6.172
 6531SOL    HW131652   3.005   9.975   6.239
 6531SOL    HW231653   2.923   0.087   6.154
 6532SOL     OW31654   3.083   1.743   7.167
 6532SOL    HW131655   3.008   1.772   7.107
 6532SOL    HW231656   3.129   1.824   7.204
 6533SOL     OW31657   2.556   0.117   6.506
 6533SOL    HW131658   2.535   0.034   6.558
 6533SOL    HW231659   2.655   0.129   6.499
 6534SOL     OW31660   2.170   1.753   6.802
 6534SOL    HW131661   2.126   1.712   6.722
 6534SOL    HW231662   2.100   1.791   6.863
 6535SOL     OW31663   2.846   1.227   6.427
 6535SOL    HW131664   2.872   1.309   6.377
 6535SOL    HW231665   2.927   1.189   6.473
 6536SOL     OW31666   2.520   0.980   6.490
 6536SOL    HW131667   2.552   0.893   6.451
 6536SOL    HW231668   2.442   0.962   6.550
 6537SOL     OW31669   1.925   1.021   6.677
 6537SOL    HW131670   2.019   1.033   6.708
 6537SOL    HW231671   1.922   0.951   6.606
 6538SOL     OW31672   2.135   0.016   5.915
 6538SOL    HW131673   2.179   0.104   5.936
 6538SOL    HW231674   2.039   0.020   5.944
 6539SOL     OW31675   2.553   0.668   7.231
 6539SOL    HW131676   2.498   0.719   7.165
 6539SOL    HW231677   2.645   0.653   7.194
 6540SOL     OW31678   1.933   1.087   5.781
 6540SOL    HW131679   1.950   0.991   5.759
 6540SOL    HW231680   1.984   1.145   5.718
 6541SOL     OW31681   3.573   0.318   6.391
 6541SOL    HW131682   3.545   0.313   6.487
 6541SOL    HW231683   3.656   0.373   6.384
 6542SOL     OW31684   2.650   1.186   6.621
 6542SOL    HW131685   2.602   1.110   6.579
 6542SOL    HW231686   2.719   1.222   6.558
 6543SOL     OW31687   3.089   0.631   5.821
 6543SOL    HW131688   3.129   0.715   5.859
 6543SOL    HW231689   3.033   0.654   5.741
 6544SOL     OW31690   3.421   1.458   7.240
 6544SOL    HW131691   3.382   1.374   7.277
 6544SOL    HW231692   3.359   1.496   7.172
 6545SOL     OW31693   2.103   0.898   6.920
 6545SOL    HW131694   2.122   0.813   6.970
 6545SOL    HW231695   2.073   0.968   6.985
 6546SOL     OW31696   2.664   1.516   5.568
 6546SOL    HW131697   2.616   1.571   5.636
 6546SOL    HW231698   2.719   1.446   5.614
 6547SOL     OW31699   2.466   1.768   6.628
 6547SOL    HW131700   2.471   1.727   6.537
 6547SOL    HW231701   2.370   1.784   6.652
 6548SOL     OW31702   2.619   1.143   6.283
 6548SOL    HW131703   2.699   1.183   6.326
 6548SOL    HW231704   2.576   1.079   6.347
 6549SOL     OW31705   2.790   1.499   6.059
 6549SOL    HW131706   2.852   1.514   5.982
 6549SOL    HW231707   2.727   1.425   6.037
 6550SOL     OW31708   1.970   0.847   6.472
 6550SOL    HW131709   2.057   0.807   6.443
 6550SOL    HW231710   1.922   0.883   6.393
 6551SOL     OW31711   1.885   0.942   7.357
 6551SOL    HW131712   1.787   0.935   7.337
 6551SOL    HW231713   1.904   0.901   7.446
 6552SOL     OW31714   2.859   1.803   7.017
 6552SOL    HW131715   2.807   1.728   7.058
 6552SOL    HW231716   2.823   1.890   7.050
 6553SOL     OW31717   3.097   1.171   6.564
 6553SOL    HW131718   3.111   1.269   6.576
 6553SOL    HW231719   3.144   1.121   6.638
 6554SOL     OW31720   2.402   0.419   7.295
 6554SOL    HW131721   2.462   0.379   7.226
 6554SOL    HW231722   2.426   0.515   7.308
 6555SOL     OW31723   2.373   0.905   5.892
 6555SOL    HW131724   2.344   0.995   5.862
 6555SOL    HW231725   2.299   0.861   5.943
 6556SOL     OW31726   3.490   0.945   6.584
 6556SOL    HW131727   3.501   1.020   6.518
 6556SOL    HW231728   3.418   0.968   6.650
 6557SOL     OW31729   3.181   0.337   6.936
 6557SOL    HW131730   3.274   0.303   6.944
 6557SOL    HW231731   3.117   0.259   6.936
 6558SOL     OW31732   1.876   0.095   5.982
 6558SOL    HW131733   1.787   0.066   6.017
 6558SOL    HW231734   1.884   0.194   5.989
 6559SOL     OW31735   3.015   0.121   7.211
 6559SOL    HW131736   3.108   0.135   7.244
 6559SOL    HW231737   2.960   0.203   7.231
 6560SOL     OW31738   2.307   1.595   7.168
 6560SOL    HW131739   2.248   1.656   7.221
 6560SOL    HW231740   2.349   1.645   7.093
 6561SOL     OW31741   3.661   1.492   7.109
 6561SOL    HW131742   3.702   1.580   7.135
 6561SOL    HW231743   3.577   1.478   7.161
 6562SOL     OW31744   2.863   0.531   6.648
 6562SOL    HW131745   2.946   0.582   6.671
 6562SOL    HW231746   2.859   0.446   6.701
 6563SOL     OW31747   2.310   1.504   6.224
 6563SOL    HW131748   2.317   1.406   6.238
 6563SOL    HW231749   2.213   1.530   6.216
 6564SOL     OW31750   2.906   1.557   6.686
 6564SOL    HW131751   2.838   1.548   6.613
 6564SOL    HW231752   2.881   1.634   6.745
 6565SOL     OW31753   2.138   1.763   7.323
 6565SOL    HW131754   2.167   1.858   7.317
 6565SOL    HW231755   2.137   1.734   7.419
 6566SOL     OW31756   1.975   1.311   7.194
 6566SOL    HW131757   1.969   1.214   7.170
 6566SOL    HW231758   1.901   1.360   7.148
 6567SOL     OW31759   2.029   1.645   6.588
 6567SOL    HW131760   2.013   1.549   6.613
 6567SOL    HW231761   2.046   1.650   6.489
 6568SOL     OW31762   2.826   0.150   6.483
 6568SOL    HW131763   2.916   0.190   6.469
 6568SOL    HW231764   2.833   0.075   6.550
 6569SOL     OW31765   2.912   1.222   5.926
 6569SOL    HW131766   2.999   1.244   5.971
 6569SOL    HW231767   2.865   1.150   5.978
 6570SOL     OW31768   3.422   0.512   6.273
 6570SOL    HW131769   3.451   0.593   6.325
 6570SOL    HW231770   3.471   0.432   6.308
 6571SOL     OW31771   2.600   1.162   5.782
 6571SOL    HW131772   2.671   1.224   5.748
 6571SOL    HW231773   2.610   1.073   5.738
 6572SOL     OW31774   2.640   0.224   5.682
 6572SOL    HW131775   2.665   0.156   5.751
 6572SOL    HW231776   2.646   0.315   5.721
 6573SOL     OW31777   2.357   0.511   6.304
 6573SOL    HW131778   2.375   0.413   6.300
 6573SOL    HW231779   2.420   0.559   6.243
 6574SOL     OW31780   2.415   1.073   6.988
 6574SOL    HW131781   2.508   1.042   7.012
 6574SOL    HW231782   2.421   1.152   6.927
 6575SOL     OW31783   3.641   1.163   6.937
 6575SOL    HW131784   3.629   1.254   6.895
 6575SOL    HW231785   3.674   1.099   6.867
 6576SOL     OW31786   2.069   1.253   5.609
 6576SOL    HW131787   2.029   1.277   5.520
 6576SOL    HW231788   2.132   1.325   5.637
 6577SOL     OW31789   2.509   1.644   5.744
 6577SOL    HW131790   2.458   1.728   5.722
 6577SOL    HW231791   2.478   1.609   5.832
 6578SOL     OW31792   3.182   1.115   7.014
 6578SOL    HW131793   3.124   1.078   7.086
 6578SOL    HW231794   3.158   1.211   6.997
 6579SOL     OW31795   2.408   1.701   6.927
 6579SOL    HW131796   2.475   1.749   6.870
 6579SOL    HW231797   2.317   1.712   6.888
 6580SOL     OW31798   2.037   0.580   7.305
 6580SOL    HW131799   2.024   0.482   7.289
 6580SOL    HW231800   2.072   0.594   7.397
 6581SOL     OW31801   3.512   1.532   6.596
 6581SOL    HW131802   3.541   1.624   6.622
 6581SOL    HW231803   3.546   1.466   6.663
 6582SOL     OW31804   1.846   0.947   6.238
 6582SOL    HW131805   1.879   1.020   6.178
 6582SOL    HW231806   1.746   0.947   6.239
 6583SOL     OW31807   2.394   0.803   7.061
 6583SOL    HW131808   2.305   0.760   7.070
 6583SOL    HW231809   2.383   0.897   7.028
 6584SOL     OW31810   3.493   1.169   6.418
 6584SOL    HW131811   3.473   1.266   6.400
 6584SOL    HW231812   3.459   1.113   6.343
 6585SOL     OW31813   2.586   0.545   6.573
 6585SOL    HW131814   2.682   0.535   6.601
 6585SOL    HW231815   2.538   0.603   6.639
 6586SOL     OW31816   2.480   1.284   6.819
 6586SOL    HW131817   2.389   1.307   6.786
 6586SOL    HW231818   2.538   1.259   6.741
 6587SOL     OW31819   1.992   0.722   6.727
 6587SOL    HW131820   2.014   0.795   6.792
 6587SOL    HW231821   1.982   0.761   6.635
 6588SOL     OW31822   2.187   1.386   7.036
 6588SOL    HW131823   2.233   1.465   7.077
 6588SOL    HW231824   2.112   1.357   7.095
 6589SOL     OW31825   3.490   1.709   7.340
 6589SOL    HW131826   3.464   1.614   7.323
 6589SOL    HW231827   3.461   1.765   7.263
 6590SOL     OW31828   3.173   1.267   6.014
 6590SOL    HW131829   3.261   1.266   6.061
 6590SOL    HW231830   3.185   1.236   5.920
 6591SOL     OW31831   2.484   0.377   6.023
 6591SOL    HW131832   2.394   0.341   6.000
 6591SOL    HW231833   2.523   0.325   6.099
 6592SOL     OW31834   3.461   0.075   6.324
 6592SOL    HW131835   3.446   0.063   6.226
 6592SOL    HW231836   3.505   0.163   6.340
 6593SOL     OW31837   3.024   0.760   6.952
 6593SOL    HW131838   3.120   0.773   6.927
 6593SOL    HW231839   2.965   0.804   6.885
 6594SOL     OW31840   2.609   0.747   6.382
 6594SOL    HW131841   2.603   0.668   6.444
 6594SOL    HW231842   2.585   0.718   6.290
 6595SOL     OW31843   3.135   1.444   6.599
 6595SOL    HW131844   3.047   1.476   6.635
 6595SOL    HW231845   3.146   1.476   6.505
 6596SOL     OW31846   3.158   0.435   6.262
 6596SOL    HW131847   3.140   0.428   6.164
 6596SOL    HW231848   3.252   0.467   6.276
 6597SOL     OW31849   2.918   1.455   8.130
 6597SOL    HW131850   3.012   1.487   8.121
 6597SOL    HW231851   2.872   1.464   8.042
 6598SOL     OW31852   3.467   1.279   7.943
 6598SOL    HW131853   3.472   1.340   8.022
 6598SOL    HW231854   3.559   1.252   7.916
 6599SOL     OW31855   3.448   0.625   8.799
 6599SOL    HW131856   3.361   0.596   8.838
 6599SOL    HW231857   3.519   0.624   8.869
 6600SOL     OW31858   2.204   0.269   7.397
 6600SOL    HW131859   2.123   0.277   7.338
 6600SOL    HW231860   2.276   0.330   7.363
 6601SOL     OW31861   3.005   9.939   8.784
 6601SOL    HW131862   2.954   9.975   8.705
 6601SOL    HW231863   3.103   9.944   8.765
 6602SOL     OW31864   2.813   0.911   9.123
 6602SOL    HW131865   2.775   0.925   9.032
 6602SOL    HW231866   2.743   0.928   9.192
 6603SOL     OW31867   2.408   1.490   7.806
 6603SOL    HW131868   2.370   1.518   7.894
 6603SOL    HW231869   2.475   1.418   7.820
 6604SOL     OW31870   2.382   0.080   7.467
 6604SOL    HW131871   2.472   0.124   7.456
 6604SOL    HW231872   2.311   0.143   7.435
 6605SOL     OW31873   3.433   1.059   8.927
 6605SOL    HW131874   3.338   1.083   8.909
 6605SOL    HW231875   3.492   1.105   8.861
 6606SOL     OW31876   3.266   1.087   8.608
 6606SOL    HW131877   3.222   1.086   8.698
 6606SOL    HW231878   3.313   1.174   8.595
 6607SOL     OW31879   2.812   1.332   8.900
 6607SOL    HW131880   2.732   1.387   8.879
 6607SOL    HW231881   2.835   1.276   8.820
 6608SOL     OW31882   2.314   1.231   8.111
 6608SOL    HW131883   2.249   1.194   8.177
 6608SOL    HW231884   2.407   1.205   8.136
 6609SOL     OW31885   3.154   0.520   9.183
 6609SOL    HW131886   3.251   0.543   9.178
 6609SOL    HW231887   3.141   0.442   9.244
 6610SOL     OW31888   2.283   1.404   7.549
 6610SOL    HW131889   2.337   1.409   7.465
 6610SOL    HW231890   2.329   1.455   7.621
 6611SOL     OW31891   2.325   0.321   8.372
 6611SOL    HW131892   2.335   0.389   8.300
 6611SOL    HW231893   2.410   0.269   8.382
 6612SOL     OW31894   2.123   0.784   7.782
 6612SOL    HW131895   2.062   0.758   7.857
 6612SOL    HW231896   2.185   0.857   7.811
 6613SOL     OW31897   2.654   1.716   7.997
 6613SOL    HW131898   2.700   1.640   7.952
 6613SOL    HW231899   2.634   1.787   7.930
 6614SOL     OW31900   3.625   1.595   7.793
 6614SOL    HW131901   3.716   1.556   7.778
 6614SOL    HW231902   3.602   1.658   7.719
 6615SOL     OW31903   3.532   0.364   8.482
 6615SOL    HW131904   3.551   0.461   8.498
 6615SOL    HW231905   3.433   0.350   8.477
 6616SOL     OW31906   2.903   0.360   7.710
 6616SOL    HW131907   2.937   0.452   7.732
 6616SOL    HW231908   2.867   0.317   7.792
 6617SOL     OW31909   2.007   1.021   8.983
 6617SOL    HW131910   2.100   1.053   9.001
 6617SOL    HW231911   1.967   0.985   9.067
 6618SOL     OW31912   2.360   0.712   7.426
 6618SOL    HW131913   2.332   0.808   7.427
 6618SOL    HW231914   2.438   0.700   7.364
 6619SOL     OW31915   2.516   1.631   8.213
 6619SOL    HW131916   2.569   1.672   8.139
 6619SOL    HW231917   2.438   1.581   8.175
 6620SOL     OW31918   2.807   0.611   8.925
 6620SOL    HW131919   2.826   0.552   9.003
 6620SOL    HW231920   2.892   0.643   8.884
 6621SOL     OW31921   3.470   1.437   8.184
 6621SOL    HW131922   3.459   1.473   8.276
 6621SOL    HW231923   3.536   1.494   8.134
 6622SOL     OW31924   2.160   1.260   7.881
 6622SOL    HW131925   2.216   1.249   7.964
 6622SOL    HW231926   2.206   1.215   7.804
 6623SOL     OW31927   2.996   0.189   7.520
 6623SOL    HW131928   3.091   0.162   7.536
 6623SOL    HW231929   2.966   0.250   7.593
 6624SOL     OW31930   2.230   0.583   8.561
 6624SOL    HW131931   2.216   0.485   8.575
 6624SOL    HW231932   2.143   0.631   8.573
 6625SOL     OW31933   3.267   0.806   8.687
 6625SOL    HW131934   3.286   0.901   8.663
 6625SOL    HW231935   3.349   0.765   8.726
 6626SOL     OW31936   2.244   0.383   7.899
 6626SOL    HW131937   2.168   0.363   7.961
 6626SOL    HW231938   2.215   0.367   7.805
 6627SOL     OW31939   3.392   1.744   8.719
 6627SOL    HW131940   3.319   1.743   8.652
 6627SOL    HW231941   3.481   1.744   8.672
 6628SOL     OW31942   3.570   0.623   8.551
 6628SOL    HW131943   3.663   0.660   8.548
 6628SOL    HW231944   3.535   0.629   8.644
 6629SOL     OW31945   3.647   1.750   8.581
 6629SOL    HW131946   3.685   1.796   8.661
 6629SOL    HW231947   3.722   1.723   8.520
 6630SOL     OW31948   2.843   0.559   7.984
 6630SOL    HW131949   2.889   0.599   8.064
 6630SOL    HW231950   2.882   0.598   7.900
 6631SOL     OW31951   3.097   0.987   7.561
 6631SOL    HW131952   3.127   0.924   7.633
 6631SOL    HW231953   3.005   0.962   7.532
 6632SOL     OW31954   2.864   0.471   9.153
 6632SOL    HW131955   2.962   0.476   9.174
 6632SOL    HW231956   2.812   0.458   9.237
 6633SOL     OW31957   2.841   1.766   7.531
 6633SOL    HW131958   2.871   1.711   7.453
 6633SOL    HW231959   2.863   1.717   7.616
 6634SOL     OW31960   2.733   0.154   9.072
 6634SOL    HW131961   2.751   0.062   9.038
 6634SOL    HW231962   2.709   0.149   9.169
 6635SOL     OW31963   3.404   0.694   8.344
 6635SOL    HW131964   3.392   0.794   8.344
 6635SOL    HW231965   3.470   0.669   8.415
 6636SOL     OW31966   2.953   1.316   9.137
 6636SOL    HW131967   3.002   1.230   9.128
 6636SOL    HW231968   2.897   1.330   9.055
 6637SOL     OW31969   2.576   1.166   9.098
 6637SOL    HW131970   2.529   1.252   9.113
 6637SOL    HW231971   2.586   1.117   9.185
 6638SOL     OW31972   3.223   0.022   8.295
 6638SOL    HW131973   3.169   0.106   8.287
 6638SOL    HW231974   3.310   0.035   8.247
 6639SOL     OW31975   3.454   0.264   9.189
 6639SOL    HW131976   3.421   0.249   9.283
 6639SOL    HW231977   3.485   0.178   9.150
 6640SOL     OW31978   1.938   0.735   7.979
 6640SOL    HW131979   1.942   0.665   8.051
 6640SOL    HW231980   1.905   0.821   8.019
 6641SOL     OW31981   2.153   0.169   8.220
 6641SOL    HW131982   2.218   0.218   8.279
 6641SOL    HW231983   2.172   0.071   8.224
 6642SOL     OW31984   2.151   0.301   8.584
 6642SOL    HW131985   2.156   0.212   8.630
 6642SOL    HW231986   2.213   0.302   8.506
 6643SOL     OW31987   2.879   0.876   8.317
 6643SOL    HW131988   2.789   0.884   8.275
 6643SOL    HW231989   2.924   0.794   8.282
 6644SOL     OW31990   2.070   1.520   7.815
 6644SOL    HW131991   2.097   1.426   7.833
 6644SOL    HW231992   2.122   1.555   7.736
 6645SOL     OW31993   3.332   1.356   8.604
 6645SOL    HW131994   3.298   1.394   8.518
 6645SOL    HW231995   3.262   1.367   8.675
 6646SOL     OW31996   2.052   1.614   8.081
 6646SOL    HW131997   1.955   1.630   8.097
 6646SOL    HW231998   2.066   1.591   7.985
 6647SOL     OW31999   3.593   1.415   8.651
 6647SOL    HW132000   3.612   1.453   8.741
 6647SOL    HW232001   3.495   1.395   8.644
 6648SOL     OW32002   2.322   0.984   7.441
 6648SOL    HW132003   2.297   1.034   7.359
 6648SOL    HW232004   2.297   1.037   7.522
 6649SOL     OW32005   2.833   1.140   8.688
 6649SOL    HW132006   2.865   1.048   8.663
 6649SOL    HW232007   2.758   1.166   8.627
 6650SOL     OW32008   1.916   0.852   7.613
 6650SOL    HW132009   2.002   0.827   7.658
 6650SOL    HW232010   1.840   0.803   7.656
 6651SOL     OW32011   3.452   0.885   7.800
 6651SOL    HW132012   3.534   0.829   7.811
 6651SOL    HW232013   3.468   0.955   7.730
 6652SOL     OW32014   2.691   1.856   8.400
 6652SOL    HW132015   2.738   1.772   8.373
 6652SOL    HW232016   2.612   1.832   8.457
 6653SOL     OW32017   2.589   0.929   7.455
 6653SOL    HW132018   2.610   0.837   7.489
 6653SOL    HW232019   2.490   0.940   7.447
 6654SOL     OW32020   2.125   0.634   8.909
 6654SOL    HW132021   2.089   0.550   8.870
 6654SOL    HW232022   2.103   0.638   9.007
 6655SOL     OW32023   2.015   0.387   8.816
 6655SOL    HW132024   2.064   0.368   8.731
 6655SOL    HW232025   1.918   0.366   8.805
 6656SOL     OW32026   2.870   0.880   8.597
 6656SOL    HW132027   2.877   0.877   8.498
 6656SOL    HW232028   2.786   0.835   8.627
 6657SOL     OW32029   2.783   1.614   8.305
 6657SOL    HW132030   2.832   1.550   8.246
 6657SOL    HW232031   2.685   1.608   8.288
 6658SOL     OW32032   2.653   0.411   7.608
 6658SOL    HW132033   2.591   0.413   7.687
 6658SOL    HW232034   2.747   0.397   7.639
 6659SOL     OW32035   2.813   1.301   7.527
 6659SOL    HW132036   2.870   1.284   7.608
 6659SOL    HW232037   2.870   1.299   7.445
 6660SOL     OW32038   3.632   1.618   8.063
 6660SOL    HW132039   3.560   1.681   8.094
 6660SOL    HW232040   3.629   1.611   7.964
 6661SOL     OW32041   3.039   0.881   7.973
 6661SOL    HW132042   3.076   0.916   8.059
 6661SOL    HW232043   2.958   0.933   7.947
 6662SOL     OW32044   2.704   1.635   9.032
 6662SOL    HW132045   2.657   1.573   8.969
 6662SOL    HW232046   2.706   1.595   9.123
 6663SOL     OW32047   3.151   0.981   8.204
 6663SOL    HW132048   3.224   0.967   8.270
 6663SOL    HW232049   3.064   0.995   8.251
 6664SOL     OW32050   2.148   1.134   8.299
 6664SOL    HW132051   2.053   1.166   8.300
 6664SOL    HW232052   2.170   1.093   8.388
 6665SOL     OW32053   2.814   1.004   7.870
 6665SOL    HW132054   2.786   0.922   7.820
 6665SOL    HW232055   2.737   1.039   7.924
 6666SOL     OW32056   3.130   1.390   8.784
 6666SOL    HW132057   3.177   1.455   8.843
 6666SOL    HW232058   3.049   1.432   8.745
 6667SOL     OW32059   1.899   0.347   7.822
 6667SOL    HW132060   1.965   0.352   7.747
 6667SOL    HW232061   1.948   0.352   7.909
 6668SOL     OW32062   3.519   1.794   7.601
 6668SOL    HW132063   3.604   1.847   7.605
 6668SOL    HW232064   3.511   1.753   7.511
 6669SOL     OW32065   2.667   0.774   8.754
 6669SOL    HW132066   2.662   0.858   8.808
 6669SOL    HW232067   2.711   0.702   8.808
 6670SOL     OW32068   1.984   1.784   8.775
 6670SOL    HW132069   1.991   1.883   8.778
 6670SOL    HW232070   1.953   1.750   8.864
 6671SOL     OW32071   2.194   0.645   8.288
 6671SOL    HW132072   2.261   0.601   8.229
 6671SOL    HW232073   2.221   0.632   8.384
 6672SOL     OW32074   2.156   1.764   7.608
 6672SOL    HW132075   2.246   1.794   7.575
 6672SOL    HW232076   2.146   1.791   7.704
 6673SOL     OW32077   3.168   1.699   8.537
 6673SOL    HW132078   3.117   1.741   8.461
 6673SOL    HW232079   3.199   1.608   8.510
 6674SOL     OW32080   1.885   1.211   8.351
 6674SOL    HW132081   1.800   1.210   8.299
 6674SOL    HW232082   1.881   1.142   8.423
 6675SOL     OW32083   2.640   0.023   7.747
 6675SOL    HW132084   2.664   9.952   7.681
 6675SOL    HW232085   2.541   0.034   7.750
 6676SOL     OW32086   1.888   1.179   7.910
 6676SOL    HW132087   1.978   1.219   7.926
 6676SOL    HW232088   1.877   1.159   7.813
 6677SOL     OW32089   3.380   0.326   8.929
 6677SOL    HW132090   3.326   0.409   8.914
 6677SOL    HW232091   3.401   0.316   9.026
 6678SOL     OW32092   3.095   0.274   8.289
 6678SOL    HW132093   3.110   0.348   8.224
 6678SOL    HW232094   3.150   0.290   8.371
 6679SOL     OW32095   3.244   0.070   7.566
 6679SOL    HW132096   3.343   0.087   7.569
 6679SOL    HW232097   3.227   9.972   7.563
 6680SOL     OW32098   3.498   0.072   8.985
 6680SOL    HW132099   3.498   0.004   8.912
 6680SOL    HW232100   3.464   0.159   8.949
 6681SOL     OW32101   2.644   0.404   8.084
 6681SOL    HW132102   2.667   0.372   8.176
 6681SOL    HW232103   2.717   0.463   8.050
 6682SOL     OW32104   3.184   0.617   8.499
 6682SOL    HW132105   3.245   0.639   8.423
 6682SOL    HW232106   3.198   0.683   8.573
 6683SOL     OW32107   3.453   0.053   7.896
 6683SOL    HW132108   3.487   0.006   7.815
 6683SOL    HW232109   3.353   0.061   7.890
 6684SOL     OW32110   2.449   1.419   9.176
 6684SOL    HW132111   2.404   1.484   9.113
 6684SOL    HW232112   2.535   1.458   9.208
 6685SOL     OW32113   2.261   1.116   9.010
 6685SOL    HW132114   2.323   1.075   8.943
 6685SOL    HW232115   2.250   1.213   8.992
 6686SOL     OW32116   1.969   1.405   8.522
 6686SOL    HW132117   1.946   1.340   8.450
 6686SOL    HW232118   1.891   1.415   8.584
 6687SOL     OW32119   2.966   0.630   8.226
 6687SOL    HW132120   3.044   0.584   8.184
 6687SOL    HW232121   2.942   0.584   8.311
 6688SOL     OW32122   3.635   0.633   9.002
 6688SOL    HW132123   3.644   0.726   8.965
 6688SOL    HW232124   3.725   0.600   9.030
 6689SOL     OW32125   3.257   0.352   8.497
 6689SOL    HW132126   3.228   0.448   8.503
 6689SOL    HW232127   3.235   0.305   8.582
 6690SOL     OW32128   3.427   0.534   9.152
 6690SOL    HW132129   3.503   0.575   9.102
 6690SOL    HW232130   3.451   0.440   9.178
 6691SOL     OW32131   3.185   0.813   7.762
 6691SOL    HW132132   3.134   0.839   7.844
 6691SOL    HW232133   3.282   0.828   7.777
 6692SOL     OW32134   3.399   0.984   8.055
 6692SOL    HW132135   3.403   0.955   7.959
 6692SOL    HW232136   3.304   0.983   8.086
 6693SOL     OW32137   3.646   0.877   8.887
 6693SOL    HW132138   3.565   0.936   8.890
 6693SOL    HW232139   3.728   0.932   8.906
 6694SOL     OW32140   2.575   1.480   8.842
 6694SOL    HW132141   2.521   1.560   8.817
 6694SOL    HW232142   2.537   1.399   8.798
 6695SOL     OW32143   2.011   0.344   9.090
 6695SOL    HW132144   2.012   0.360   8.991
 6695SOL    HW232145   1.922   0.306   9.116
 6696SOL     OW32146   1.902   1.698   9.028
 6696SOL    HW132147   1.986   1.728   9.074
 6696SOL    HW232148   1.824   1.713   9.089
 6697SOL     OW32149   2.026   0.345   8.063
 6697SOL    HW132150   1.999   0.424   8.118
 6697SOL    HW232151   2.071   0.277   8.121
 6698SOL     OW32152   3.261   1.589   8.911
 6698SOL    HW132153   3.186   1.644   8.948
 6698SOL    HW232154   3.312   1.643   8.844
 6699SOL     OW32155   2.156   0.606   7.572
 6699SOL    HW132156   2.236   0.634   7.519
 6699SOL    HW232157   2.145   0.668   7.650
 6700SOL     OW32158   3.608   0.297   8.740
 6700SOL    HW132159   3.539   0.322   8.808
 6700SOL    HW232160   3.577   0.327   8.649
 6701SOL     OW32161   2.248   1.821   8.110
 6701SOL    HW132162   2.181   1.748   8.127
 6701SOL    HW232163   2.250   1.842   8.012
 6702SOL     OW32164   2.196   1.308   8.656
 6702SOL    HW132165   2.195   1.336   8.752
 6702SOL    HW232166   2.121   1.353   8.607
 6703SOL     OW32167   3.014   1.573   9.223
 6703SOL    HW132168   2.991   1.479   9.196
 6703SOL    HW232169   3.026   1.629   9.141
 6704SOL     OW32170   2.586   1.281   7.856
 6704SOL    HW132171   2.598   1.236   7.767
 6704SOL    HW232172   2.562   1.213   7.925
 6705SOL     OW32173   2.122   0.346   7.645
 6705SOL    HW132174   2.150   0.300   7.561
 6705SOL    HW232175   2.126   0.445   7.631
 6706SOL     OW32176   1.945   0.568   8.200
 6706SOL    HW132177   1.866   0.605   8.249
 6706SOL    HW232178   2.029   0.600   8.243
 6707SOL     OW32179   2.318   1.159   7.663
 6707SOL    HW132180   2.418   1.152   7.663
 6707SOL    HW232181   2.290   1.245   7.620
 6708SOL     OW32182   2.935   0.722   7.470
 6708SOL    HW132183   2.896   0.783   7.401
 6708SOL    HW232184   3.020   0.683   7.435
 6709SOL     OW32185   2.674   0.681   7.548
 6709SOL    HW132186   2.768   0.685   7.514
 6709SOL    HW232187   2.645   0.586   7.554
 6710SOL     OW32188   3.184   0.076   7.842
 6710SOL    HW132189   3.128   0.134   7.902
 6710SOL    HW232190   3.191   0.118   7.752
 6711SOL     OW32191   3.203   0.538   8.904
 6711SOL    HW132192   3.180   0.539   9.001
 6711SOL    HW232193   3.135   0.591   8.854
 6712SOL     OW32194   1.809   0.019   7.557
 6712SOL    HW132195   1.743   9.956   7.597
 6712SOL    HW232196   1.893   0.018   7.610
 6713SOL     OW32197   2.166   1.049   8.567
 6713SOL    HW132198   2.173   0.983   8.641
 6713SOL    HW232199   2.186   1.141   8.602
 6714SOL     OW32200   3.513   1.056   7.595
 6714SOL    HW132201   3.611   1.074   7.604
 6714SOL    HW232202   3.490   1.046   7.498
 6715SOL     OW32203   2.481   0.714   8.552
 6715SOL    HW132204   2.528   0.731   8.639
 6715SOL    HW232205   2.393   0.670   8.570
 6716SOL     OW32206   2.686   1.018   8.897
 6716SOL    HW132207   2.745   1.070   8.836
 6716SOL    HW232208   2.650   1.078   8.969
 6717SOL     OW32209   3.041   1.057   9.082
 6717SOL    HW132210   2.955   1.009   9.099
 6717SOL    HW232211   3.117   0.997   9.107
 6718SOL     OW32212   3.030   0.227   8.005
 6718SOL    HW132213   3.034   0.208   8.103
 6718SOL    HW232214   2.935   0.219   7.973
 6719SOL     OW32215   3.055   1.739   9.009
 6719SOL    HW132216   2.980   1.757   8.945
 6719SOL    HW232217   3.095   1.825   9.039
 6720SOL     OW32218   2.553   0.179   8.382
 6720SOL    HW132219   2.533   0.091   8.425
 6720SOL    HW232220   2.651   0.185   8.362
 6721SOL     OW32221   2.198   1.727   8.603
 6721SOL    HW132222   2.151   1.699   8.520
 6721SOL    HW232223   2.131   1.743   8.676
 6722SOL     OW32224   2.810   1.250   8.287
 6722SOL    HW132225   2.840   1.321   8.223
 6722SOL    HW232226   2.887   1.224   8.345
 6723SOL     OW32227   2.527   0.956   8.404
 6723SOL    HW132228   2.558   0.903   8.325
 6723SOL    HW232229   2.487   0.894   8.472
 6724SOL     OW32230   1.896   1.017   8.538
 6724SOL    HW132231   1.995   1.025   8.552
 6724SOL    HW232232   1.878   0.946   8.470
 6725SOL     OW32233   2.079   0.037   7.698
 6725SOL    HW132234   2.096   0.132   7.674
 6725SOL    HW232235   2.011   0.033   7.772
 6726SOL     OW32236   2.574   0.694   9.059
 6726SOL    HW132237   2.508   0.717   8.987
 6726SOL    HW232238   2.659   0.663   9.016
 6727SOL     OW32239   1.904   1.129   7.640
 6727SOL    HW132240   1.924   1.033   7.622
 6727SOL    HW232241   1.956   1.187   7.577
 6728SOL     OW32242   3.577   0.317   8.213
 6728SOL    HW132243   3.576   0.336   8.311
 6728SOL    HW232244   3.672   0.311   8.182
 6729SOL     OW32245   2.641   1.186   8.500
 6729SOL    HW132246   2.599   1.100   8.472
 6729SOL    HW232247   2.693   1.225   8.424
 6730SOL     OW32248   2.976   0.626   7.736
 6730SOL    HW132249   3.057   0.678   7.763
 6730SOL    HW232250   2.943   0.660   7.648
 6731SOL     OW32251   3.424   1.449   9.078
 6731SOL    HW132252   3.386   1.366   9.119
 6731SOL    HW232253   3.355   1.491   9.019
 6732SOL     OW32254   2.096   0.868   8.771
 6732SOL    HW132255   2.107   0.780   8.816
 6732SOL    HW232256   2.060   0.935   8.836
 6733SOL     OW32257   2.654   1.495   7.408
 6733SOL    HW132258   2.606   1.551   7.476
 6733SOL    HW232259   2.716   1.432   7.455
 6734SOL     OW32260   2.453   1.738   8.474
 6734SOL    HW132261   2.459   1.688   8.387
 6734SOL    HW232262   2.359   1.731   8.509
 6735SOL     OW32263   2.562   1.142   8.200
 6735SOL    HW132264   2.649   1.186   8.219
 6735SOL    HW232265   2.534   1.087   8.279
 6736SOL     OW32266   2.780   1.486   7.893
 6736SOL    HW132267   2.845   1.493   7.818
 6736SOL    HW232268   2.717   1.411   7.876
 6737SOL     OW32269   1.977   0.852   8.318
 6737SOL    HW132270   2.067   0.823   8.288
 6737SOL    HW232271   1.930   0.898   8.243
 6738SOL     OW32272   1.879   0.925   9.197
 6738SOL    HW132273   1.780   0.925   9.184
 6738SOL    HW232274   1.901   0.878   9.283
 6739SOL     OW32275   2.832   1.770   8.828
 6739SOL    HW132276   2.791   1.716   8.902
 6739SOL    HW232277   2.764   1.833   8.792
 6740SOL     OW32278   3.022   1.215   8.477
 6740SOL    HW132279   2.962   1.221   8.557
 6740SOL    HW232280   3.101   1.157   8.498
 6741SOL     OW32281   2.403   0.447   9.184
 6741SOL    HW132282   2.474   0.431   9.115
 6741SOL    HW232283   2.400   0.545   9.206
 6742SOL     OW32284   3.364   0.967   8.381
 6742SOL    HW132285   3.422   1.035   8.337
 6742SOL    HW232286   3.329   1.004   8.468
 6743SOL     OW32287   3.189   0.236   8.733
 6743SOL    HW132288   3.231   0.273   8.816
 6743SOL    HW232289   3.092   0.262   8.730
 6744SOL     OW32290   1.861   0.077   7.857
 6744SOL    HW132291   1.768   0.047   7.876
 6744SOL    HW232292   1.862   0.176   7.844
 6745SOL     OW32293   2.988   0.102   9.197
 6745SOL    HW132294   3.040   0.174   9.244
 6745SOL    HW232295   2.918   0.143   9.139
 6746SOL     OW32296   2.307   1.607   9.023
 6746SOL    HW132297   2.247   1.675   9.066
 6746SOL    HW232298   2.351   1.648   8.943
 6747SOL     OW32299   3.641   1.486   8.914
 6747SOL    HW132300   3.686   1.571   8.941
 6747SOL    HW232301   3.563   1.469   8.974
 6748SOL     OW32302   2.921   0.520   8.478
 6748SOL    HW132303   3.010   0.563   8.495
 6748SOL    HW232304   2.913   0.437   8.534
 6749SOL     OW32305   2.310   1.502   8.078
 6749SOL    HW132306   2.312   1.403   8.092
 6749SOL    HW232307   2.217   1.536   8.090
 6750SOL     OW32308   2.949   1.559   8.672
 6750SOL    HW132309   2.889   1.623   8.720
 6750SOL    HW232310   3.007   1.609   8.608
 6751SOL     OW32311   2.138   1.802   9.133
 6751SOL    HW132312   2.131   1.892   9.090
 6751SOL    HW232313   2.158   1.814   9.231
 6752SOL     OW32314   1.964   1.297   9.032
 6752SOL    HW132315   1.951   1.202   9.002
 6752SOL    HW232316   1.891   1.354   8.994
 6753SOL     OW32317   2.037   1.637   8.393
 6753SOL    HW132318   2.016   1.550   8.437
 6753SOL    HW232319   2.044   1.625   8.294
 6754SOL     OW32320   2.829   0.196   8.343
 6754SOL    HW132321   2.918   0.234   8.320
 6754SOL    HW232322   2.839   0.129   8.417
 6755SOL     OW32323   2.938   1.228   7.763
 6755SOL    HW132324   3.023   1.245   7.812
 6755SOL    HW232325   2.894   1.146   7.800
 6756SOL     OW32326   3.417   0.526   8.122
 6756SOL    HW132327   3.417   0.593   8.196
 6756SOL    HW232328   3.478   0.451   8.146
 6757SOL     OW32329   2.597   1.157   7.613
 6757SOL    HW132330   2.672   1.214   7.580
 6757SOL    HW232331   2.605   1.065   7.573
 6758SOL     OW32332   2.644   0.172   7.479
 6758SOL    HW132333   2.674   0.112   7.554
 6758SOL    HW232334   2.635   0.265   7.513
 6759SOL     OW32335   2.369   0.479   8.140
 6759SOL    HW132336   2.468   0.465   8.132
 6759SOL    HW232337   2.324   0.451   8.055
 6760SOL     OW32338   2.424   1.029   8.810
 6760SOL    HW132339   2.514   1.008   8.847
 6760SOL    HW232340   2.426   1.116   8.761
 6761SOL     OW32341   3.600   1.155   8.738
 6761SOL    HW132342   3.606   1.250   8.709
 6761SOL    HW232343   3.649   1.097   8.673
 6762SOL     OW32344   2.044   1.284   7.466
 6762SOL    HW132345   2.021   1.301   7.370
 6762SOL    HW232346   2.124   1.338   7.491
 6763SOL     OW32347   2.499   1.629   7.584
 6763SOL    HW132348   2.458   1.719   7.565
 6763SOL    HW232349   2.474   1.600   7.677
 6764SOL     OW32350   3.174   1.133   8.859
 6764SOL    HW132351   3.119   1.102   8.936
 6764SOL    HW232352   3.151   1.228   8.837
 6765SOL     OW32353   2.417   1.705   8.789
 6765SOL    HW132354   2.481   1.781   8.771
 6765SOL    HW232355   2.346   1.704   8.719
 6766SOL     OW32356   2.042   0.603   9.175
 6766SOL    HW132357   2.038   0.504   9.162
 6766SOL    HW232358   2.085   0.623   9.263
 6767SOL     OW32359   3.493   1.559   8.429
 6767SOL    HW132360   3.523   1.654   8.443
 6767SOL    HW232361   3.533   1.501   8.500
 6768SOL     OW32362   1.841   0.965   8.089
 6768SOL    HW132363   1.867   1.044   8.034
 6768SOL    HW232364   1.742   0.961   8.097
 6769SOL     OW32365   2.377   0.759   8.884
 6769SOL    HW132366   2.288   0.714   8.890
 6769SOL    HW232367   2.367   0.850   8.845
 6770SOL     OW32368   3.497   1.166   8.239
 6770SOL    HW132369   3.481   1.264   8.225
 6770SOL    HW232370   3.463   1.115   8.160
 6771SOL     OW32371   2.668   0.616   8.370
 6771SOL    HW132372   2.748   0.576   8.415
 6771SOL    HW232373   2.600   0.639   8.439
 6772SOL     OW32374   2.467   1.274   8.692
 6772SOL    HW132375   2.374   1.297   8.660
 6772SOL    HW232376   2.525   1.255   8.614
 6773SOL     OW32377   1.991   0.719   8.562
 6773SOL    HW132378   2.016   0.786   8.633
 6773SOL    HW232379   1.984   0.766   8.474
 6774SOL     OW32380   2.200   1.374   8.923
 6774SOL    HW132381   2.239   1.459   8.958
 6774SOL    HW232382   2.110   1.359   8.965
 6775SOL     OW32383   3.509   1.692   9.176
 6775SOL    HW132384   3.481   1.598   9.156
 6775SOL    HW232385   3.468   1.753   9.108
 6776SOL     OW32386   3.201   1.251   7.865
 6776SOL    HW132387   3.292   1.255   7.906
 6776SOL    HW232388   3.209   1.234   7.766
 6777SOL     OW32389   2.512   0.409   7.839
 6777SOL    HW132390   2.414   0.395   7.855
 6777SOL    HW232391   2.560   0.409   7.927
 6778SOL     OW32392   3.462   0.075   8.170
 6778SOL    HW132393   3.459   0.056   8.072
 6778SOL    HW232394   3.498   0.166   8.186
 6779SOL     OW32395   3.024   0.725   8.781
 6779SOL    HW132396   3.115   0.762   8.766
 6779SOL    HW232397   2.959   0.772   8.720
 6780SOL     OW32398   3.171   1.451   8.402
 6780SOL    HW132399   3.104   1.378   8.411
 6780SOL    HW232400   3.162   1.493   8.311
 6781SOL     OW32401   3.152   0.470   8.107
 6781SOL    HW132402   3.127   0.411   8.030
 6781SOL    HW232403   3.249   0.494   8.100
 6782SOL     OW32404   2.996   1.419   9.998
 6782SOL    HW132405   3.071   1.361   9.966
 6782SOL    HW232406   2.933   1.438   9.923
 6783SOL     OW32407   3.454   1.271   9.781
 6783SOL    HW132408   3.460   1.302   9.876
 6783SOL    HW232409   3.546   1.251   9.747
 6784SOL     OW32410   2.211   0.281   9.263
 6784SOL    HW132411   2.133   0.289   9.201
 6784SOL    HW232412   2.283   0.345   9.236
 6785SOL     OW32413   2.410   1.501   9.626
 6785SOL    HW132414   2.358   1.521   9.710
 6785SOL    HW232415   2.486   1.440   9.648
 6786SOL     OW32416   2.406   0.091   9.286
 6786SOL    HW132417   2.493   0.139   9.281
 6786SOL    HW232418   2.331   0.155   9.267
 6787SOL     OW32419   2.273   1.224   9.919
 6787SOL    HW132420   2.204   1.225   9.991
 6787SOL    HW232421   2.364   1.223   9.960
 6788SOL     OW32422   2.586   0.602   9.766
 6788SOL    HW132423   2.598   0.690   9.721
 6788SOL    HW232424   2.576   0.531   9.696
 6789SOL     OW32425   2.277   1.423   9.392
 6789SOL    HW132426   2.338   1.428   9.313
 6789SOL    HW232427   2.323   1.460   9.473
 6790SOL     OW32428   2.105   0.807   9.663
 6790SOL    HW132429   2.105   0.717   9.706
 6790SOL    HW232430   2.044   0.868   9.713
 6791SOL     OW32431   2.828   1.740   9.847
 6791SOL    HW132432   2.831   1.641   9.833
 6791SOL    HW232433   2.768   1.781   9.778
 6792SOL     OW32434   3.608   1.611   9.618
 6792SOL    HW132435   3.701   1.581   9.601
 6792SOL    HW232436   3.579   1.672   9.544
 6793SOL     OW32437   2.940   0.324   9.563
 6793SOL    HW132438   3.023   0.364   9.603
 6793SOL    HW232439   2.899   0.259   9.628
 6794SOL     OW32440   2.387   0.724   9.247
 6794SOL    HW132441   2.353   0.818   9.244
 6794SOL    HW232442   2.464   0.715   9.183
 6795SOL     OW32443   3.696   1.410   0.072
 6795SOL    HW132444   3.674   1.445   0.163
 6795SOL    HW232445   3.656   1.470   0.003
 6796SOL     OW32446   2.149   1.253   9.679
 6796SOL    HW132447   2.195   1.239   9.766
 6796SOL    HW232448   2.203   1.214   9.605
 6797SOL     OW32449   3.113   0.301   9.344
 6797SOL    HW132450   3.202   0.271   9.380
 6797SOL    HW232451   3.047   0.305   9.418
 6798SOL     OW32452   2.209   0.327   9.766
 6798SOL    HW132453   2.272   0.392   9.808
 6798SOL    HW232454   2.192   0.354   9.671
 6799SOL     OW32455   3.781   1.818   0.413
 6799SOL    HW132456   3.716   1.889   0.442
 6799SOL    HW232457   3.812   1.838   0.320
 6800SOL     OW32458   2.736   0.546   9.987
 6800SOL    HW132459   2.832   0.570   9.980
 6800SOL    HW232460   2.687   0.578   9.906
 6801SOL     OW32461   3.102   0.979   9.387
 6801SOL    HW132462   3.125   0.940   9.477
 6801SOL    HW232463   3.053   0.910   9.333
 6802SOL     OW32464   3.611   0.678   9.556
 6802SOL    HW132465   3.600   0.584   9.522
 6802SOL    HW232466   3.654   0.675   9.646
 6803SOL     OW32467   2.872   1.763   9.381
 6803SOL    HW132468   2.902   1.695   9.315
 6803SOL    HW232469   2.874   1.724   9.473
 6804SOL     OW32470   1.900   0.641   9.800
 6804SOL    HW132471   1.888   0.602   9.892
 6804SOL    HW232472   1.898   0.741   9.807
 6805SOL     OW32473   2.039   1.488   9.576
 6805SOL    HW132474   2.069   1.400   9.613
 6805SOL    HW232475   2.090   1.508   9.492
 6806SOL     OW32476   2.029   1.616   9.821
 6806SOL    HW132477   1.936   1.610   9.858
 6806SOL    HW232478   2.030   1.582   9.727
 6807SOL     OW32479   2.335   0.993   9.248
 6807SOL    HW132480   2.307   1.036   9.162
 6807SOL    HW232481   2.309   1.052   9.324
 6808SOL     OW32482   1.920   0.833   9.451
 6808SOL    HW132483   1.997   0.822   9.514
 6808SOL    HW232484   1.844   0.776   9.482
 6809SOL     OW32485   3.448   0.889   9.634
 6809SOL    HW132486   3.500   0.809   9.605
 6809SOL    HW232487   3.462   0.964   9.569
 6810SOL     OW32488   2.604   0.947   9.304
 6810SOL    HW132489   2.631   0.856   9.336
 6810SOL    HW232490   2.507   0.947   9.282
 6811SOL     OW32491   3.192   0.410   9.633
 6811SOL    HW132492   3.165   0.489   9.578
 6811SOL    HW232493   3.292   0.404   9.635
 6812SOL     OW32494   3.463   0.372   9.667
 6812SOL    HW132495   3.558   0.389   9.639
 6812SOL    HW232496   3.455   0.382   9.766
 6813SOL     OW32497   2.729   0.434   9.432
 6813SOL    HW132498   2.652   0.417   9.494
 6813SOL    HW232499   2.814   0.405   9.476
 6814SOL     OW32500   2.822   1.317   9.383
 6814SOL    HW132501   2.874   1.288   9.464
 6814SOL    HW232502   2.879   1.308   9.302
 6815SOL     OW32503   3.596   1.595   9.893
 6815SOL    HW132504   3.552   1.679   9.926
 6815SOL    HW232505   3.587   1.589   9.794
 6816SOL     OW32506   2.987   0.868   9.825
 6816SOL    HW132507   3.056   0.924   9.871
 6816SOL    HW232508   2.909   0.926   9.801
 6817SOL     OW32509   3.184   1.003   9.946
 6817SOL    HW132510   3.143   1.000   0.037
 6817SOL    HW232511   3.208   1.098   9.924
 6818SOL     OW32512   2.770   1.025   9.756
 6818SOL    HW132513   2.716   0.957   9.707
 6818SOL    HW232514   2.711   1.076   9.819
 6819SOL     OW32515   1.911   0.401   9.657
 6819SOL    HW132516   1.990   0.394   9.596
 6819SOL    HW232517   1.921   0.481   9.716
 6820SOL     OW32518   3.533   1.803   9.424
 6820SOL    HW132519   3.619   1.854   9.425
 6820SOL    HW232520   3.525   1.753   9.338
 6821SOL     OW32521   2.615   0.836   9.625
 6821SOL    HW132522   2.520   0.863   9.607
 6821SOL    HW232523   2.656   0.799   9.542
 6822SOL     OW32524   2.188   1.857   9.402
 6822SOL    HW132525   2.285   1.873   9.384
 6822SOL    HW232526   2.169   1.876   9.499
 6823SOL     OW32527   2.661   0.030   9.570
 6823SOL    HW132528   2.670   9.939   9.529
 6823SOL    HW232529   2.564   0.050   9.587
 6824SOL     OW32530   1.878   1.172   9.708
 6824SOL    HW132531   1.964   1.218   9.730
 6824SOL    HW232532   1.873   1.155   9.610
 6825SOL     OW32533   2.635   0.304   9.895
 6825SOL    HW132534   2.565   0.265   9.955
 6825SOL    HW232535   2.679   0.382   9.941
 6826SOL     OW32536   3.171   0.851   9.618
 6826SOL    HW132537   3.113   0.856   9.699
 6826SOL    HW232538   3.266   0.869   9.644
 6827SOL     OW32539   3.449   0.935   9.903
 6827SOL    HW132540   3.454   0.918   9.804
 6827SOL    HW232541   3.353   0.949   9.929
 6828SOL     OW32542   3.364   0.223   9.445
 6828SOL    HW132543   3.401   0.272   9.524
 6828SOL    HW232544   3.382   0.126   9.454
 6829SOL     OW32545   2.191   0.650   9.418
 6829SOL    HW132546   2.269   0.669   9.359
 6829SOL    HW232547   2.185   0.720   9.489
 6830SOL     OW32548   2.169   1.825   9.924
 6830SOL    HW132549   2.113   1.749   9.891
 6830SOL    HW232550   2.249   1.789   9.972
 6831SOL     OW32551   2.603   1.319   9.701
 6831SOL    HW132552   2.614   1.260   9.621
 6831SOL    HW232553   2.593   1.262   9.783
 6832SOL     OW32554   2.142   0.398   9.507
 6832SOL    HW132555   2.162   0.333   9.433
 6832SOL    HW232556   2.161   0.491   9.476
 6833SOL     OW32557   1.862   0.559   0.058
 6833SOL    HW132558   1.878   0.644   0.109
 6833SOL    HW232559   1.897   0.481   0.110
 6834SOL     OW32560   2.333   1.166   9.477
 6834SOL    HW132561   2.433   1.171   9.480
 6834SOL    HW232562   2.297   1.251   9.438
 6835SOL     OW32563   2.980   0.745   9.265
 6835SOL    HW132564   2.922   0.796   9.202
 6835SOL    HW232565   3.046   0.690   9.214
 6836SOL     OW32566   2.728   0.716   9.401
 6836SOL    HW132567   2.820   0.733   9.365
 6836SOL    HW232568   2.712   0.617   9.407
 6837SOL     OW32569   3.158   0.111   9.681
 6837SOL    HW132570   3.122   0.106   9.775
 6837SOL    HW232571   3.180   0.206   9.658
 6838SOL     OW32572   1.784   0.115   9.408
 6838SOL    HW132573   1.737   0.028   9.422
 6838SOL    HW232574   1.837   0.138   9.490
 6839SOL     OW32575   3.504   1.060   9.427
 6839SOL    HW132576   3.599   1.091   9.434
 6839SOL    HW232577   3.480   1.049   9.330
 6840SOL     OW32578   3.026   0.110   9.923
 6840SOL    HW132579   3.035   0.182   9.992
 6840SOL    HW232580   2.946   0.129   9.866
 6841SOL     OW32581   2.146   0.078   9.653
 6841SOL    HW132582   2.173   0.157   9.709
 6841SOL    HW232583   2.046   0.069   9.654
 6842SOL     OW32584   1.913   1.115   9.446
 6842SOL    HW132585   1.929   1.018   9.430
 6842SOL    HW232586   1.972   1.169   9.386
 6843SOL     OW32587   3.690   0.254   0.084
 6843SOL    HW132588   3.604   0.256   0.135
 6843SOL    HW232589   3.751   0.185   0.124
 6844SOL     OW32590   3.102   0.622   9.491
 6844SOL    HW132591   3.130   0.702   9.544
 6844SOL    HW232592   3.050   0.652   9.411
 6845SOL     OW32593   2.676   1.527   9.283
 6845SOL    HW132594   2.645   1.589   9.355
 6845SOL    HW232595   2.733   1.455   9.323
 6846SOL     OW32596   2.594   1.161   9.932
 6846SOL    HW132597   2.600   1.245   9.985
 6846SOL    HW232598   2.607   1.082   9.993
 6847SOL     OW32599   2.833   1.471   9.781
 6847SOL    HW132600   2.889   1.481   9.699
 6847SOL    HW232601   2.750   1.420   9.758
 6848SOL     OW32602   2.353   0.910   9.585
 6848SOL    HW132603   2.340   1.003   9.548
 6848SOL    HW232604   2.267   0.877   9.623
 6849SOL     OW32605   1.871   0.126   9.673
 6849SOL    HW132606   1.779   0.099   9.701
 6849SOL    HW232607   1.883   0.224   9.688
 6850SOL     OW32608   2.274   1.504   9.872
 6850SOL    HW132609   2.271   1.405   9.884
 6850SOL    HW232610   2.181   1.540   9.862
 6851SOL     OW32611   2.926   1.213   9.616
 6851SOL    HW132612   3.015   1.225   9.662
 6851SOL    HW232613   2.873   1.144   9.664
 6852SOL     OW32614   3.459   0.414   9.946
 6852SOL    HW132615   3.539   0.473   9.963
 6852SOL    HW232616   3.440   0.360   0.028
 6853SOL     OW32617   2.607   1.172   9.464
 6853SOL    HW132618   2.682   1.231   9.434
 6853SOL    HW232619   2.617   1.082   9.421
 6854SOL     OW32620   2.665   0.180   9.335
 6854SOL    HW132621   2.678   0.123   9.416
 6854SOL    HW232622   2.687   0.275   9.357
 6855SOL     OW32623   2.380   0.492   9.911
 6855SOL    HW132624   2.415   0.418   9.969
 6855SOL    HW232625   2.456   0.535   9.862
 6856SOL     OW32626   2.073   1.262   9.285
 6856SOL    HW132627   2.035   1.282   9.195
 6856SOL    HW232628   2.139   1.333   9.310
 6857SOL     OW32629   2.550   1.682   9.472
 6857SOL    HW132630   2.495   1.752   9.426
 6857SOL    HW232631   2.491   1.625   9.529
 6858SOL     OW32632   1.884   0.917   9.811
 6858SOL    HW132633   1.887   1.010   9.774
 6858SOL    HW232634   1.804   0.907   9.870
 6859SOL     OW32635   3.191   1.237   9.708
 6859SOL    HW132636   3.283   1.249   9.745
 6859SOL    HW232637   3.196   1.225   9.609
 6860SOL     OW32638   2.551   0.354   9.633
 6860SOL    HW132639   2.489   0.283   9.601
 6860SOL    HW232640   2.584   0.332   9.725
 6861SOL     OW32641   3.207   0.510   9.889
 6861SOL    HW132642   3.190   0.470   9.799
 6861SOL    HW232643   3.299   0.485   9.920
 6862SOL     OW32644   2.983   3.230   0.762
 6862SOL    HW132645   3.066   3.284   0.768
 6862SOL    HW232646   2.961   3.213   0.666
 6863SOL     OW32647   3.483   3.119   0.586
 6863SOL    HW132648   3.496   3.187   0.658
 6863SOL    HW232649   3.571   3.101   0.541
 6864SOL     OW32650   2.267   2.084   9.956
 6864SOL    HW132651   2.225   1.998   9.929
 6864SOL    HW232652   2.287   2.139   9.874
 6865SOL     OW32653   3.212   3.382   0.814
 6865SOL    HW132654   3.217   3.479   0.835
 6865SOL    HW232655   3.303   3.346   0.796
 6866SOL     OW32656   2.965   1.898   1.219
 6866SOL    HW132657   2.917   1.865   1.300
 6866SOL    HW232658   3.050   1.847   1.207
 6867SOL     OW32659   2.787   2.751   1.757
 6867SOL    HW132660   2.754   2.776   1.666
 6867SOL    HW232661   2.713   2.760   1.823
 6868SOL     OW32662   2.397   1.892   0.123
 6868SOL    HW132663   2.490   1.919   0.146
 6868SOL    HW232664   2.352   1.966   0.073
 6869SOL     OW32665   3.410   2.951   1.590
 6869SOL    HW132666   3.318   2.978   1.563
 6869SOL    HW232667   3.472   2.957   1.511
 6870SOL     OW32668   3.292   2.897   1.285
 6870SOL    HW132669   3.234   2.934   1.357
 6870SOL    HW232670   3.386   2.928   1.298
 6871SOL     OW32671   2.405   2.992   0.703
 6871SOL    HW132672   2.376   3.058   0.773
 6871SOL    HW232673   2.428   2.906   0.747
 6872SOL     OW32674   2.640   2.430   0.523
 6872SOL    HW132675   2.650   2.523   0.489
 6872SOL    HW232676   2.643   2.366   0.446
 6873SOL     OW32677   3.099   2.380   1.790
 6873SOL    HW132678   3.183   2.358   1.839
 6873SOL    HW232679   3.033   2.305   1.801
 6874SOL     OW32680   2.293   3.227   0.153
 6874SOL    HW132681   2.386   3.219   0.117
 6874SOL    HW232682   2.281   3.317   0.195
 6875SOL     OW32683   2.424   2.217   1.053
 6875SOL    HW132684   2.492   2.290   1.049
 6875SOL    HW232685   2.464   2.132   1.020
 6876SOL     OW32686   2.143   2.631   0.473
 6876SOL    HW132687   2.181   2.619   0.565
 6876SOL    HW232688   2.075   2.704   0.475
 6877SOL     OW32689   2.748   3.620   0.509
 6877SOL    HW132690   2.742   3.521   0.525
 6877SOL    HW232691   2.664   3.651   0.465
 6878SOL     OW32692   3.619   3.438   0.434
 6878SOL    HW132693   3.711   3.407   0.412
 6878SOL    HW232694   3.578   3.482   0.355
 6879SOL     OW32695   2.906   2.185   0.425
 6879SOL    HW132696   2.961   2.257   0.382
 6879SOL    HW232697   2.944   2.162   0.514
 6880SOL     OW32698   2.276   2.521   0.069
 6880SOL    HW132699   2.295   2.619   0.057
 6880SOL    HW232700   2.345   2.468   0.020
 6881SOL     OW32701   2.774   2.462   1.556
 6881SOL    HW132702   2.813   2.379   1.597
 6881SOL    HW232703   2.848   2.517   1.516
 6882SOL     OW32704   3.485   3.288   0.812
 6882SOL    HW132705   3.486   3.308   0.910
 6882SOL    HW232706   3.544   3.352   0.764
 6883SOL     OW32707   2.210   2.968   0.506
 6883SOL    HW132708   2.278   2.976   0.580
 6883SOL    HW232709   2.256   2.980   0.418
 6884SOL     OW32710   2.218   2.404   1.246
 6884SOL    HW132711   2.230   2.305   1.257
 6884SOL    HW232712   2.141   2.422   1.185
 6885SOL     OW32713   3.240   2.654   1.424
 6885SOL    HW132714   3.269   2.736   1.375
 6885SOL    HW232715   3.249   2.669   1.522
 6886SOL     OW32716   2.186   2.143   0.459
 6886SOL    HW132717   2.145   2.216   0.513
 6886SOL    HW232718   2.173   2.162   0.361
 6887SOL     OW32719   3.385   3.588   1.324
 6887SOL    HW132720   3.311   3.584   1.257
 6887SOL    HW232721   3.473   3.581   1.276
 6888SOL     OW32722   3.645   3.580   1.196
 6888SOL    HW132723   3.682   3.628   1.275
 6888SOL    HW232724   3.721   3.546   1.140
 6889SOL     OW32725   2.802   2.304   0.711
 6889SOL    HW132726   2.846   2.376   0.764
 6889SOL    HW232727   2.758   2.344   0.631
 6890SOL     OW32728   3.115   2.797   0.176
 6890SOL    HW132729   3.135   2.729   0.246
 6890SOL    HW232730   3.029   2.775   0.131
 6891SOL     OW32731   2.923   2.178   1.837
 6891SOL    HW132732   2.977   2.129   1.905
 6891SOL    HW232733   2.828   2.184   1.869
 6892SOL     OW32734   2.856   3.569   0.109
 6892SOL    HW132735   2.841   3.572   0.010
 6892SOL    HW232736   2.813   3.487   0.147
 6893SOL     OW32737   2.610   1.912   1.737
 6893SOL    HW132738   2.636   1.821   1.704
 6893SOL    HW232739   2.622   1.916   1.837
 6894SOL     OW32740   2.956   3.177   1.802
 6894SOL    HW132741   3.033   3.115   1.788
 6894SOL    HW232742   2.880   3.150   1.744
 6895SOL     OW32743   2.587   3.023   1.744
 6895SOL    HW132744   2.536   3.108   1.761
 6895SOL    HW232745   2.571   2.959   1.818
 6896SOL     OW32746   3.131   1.798   0.848
 6896SOL    HW132747   3.044   1.836   0.881
 6896SOL    HW232748   3.153   1.838   0.759
 6897SOL     OW32749   3.537   2.068   1.867
 6897SOL    HW132750   3.490   2.091   1.952
 6897SOL    HW232751   3.624   2.023   1.888
 6898SOL     OW32752   1.870   2.429   0.561
 6898SOL    HW132753   1.927   2.372   0.620
 6898SOL    HW232754   1.868   2.522   0.596
 6899SOL     OW32755   2.254   1.956   0.893
 6899SOL    HW132756   2.230   2.050   0.867
 6899SOL    HW232757   2.219   1.892   0.824
 6900SOL     OW32758   2.227   2.125   1.243
 6900SOL    HW132759   2.219   2.026   1.256
 6900SOL    HW232760   2.298   2.144   1.175
 6901SOL     OW32761   2.837   2.753   0.968
 6901SOL    HW132762   2.879   2.834   0.928
 6901SOL    HW232763   2.846   2.676   0.905
 6902SOL     OW32764   3.332   3.215   1.269
 6902SOL    HW132765   3.297   3.251   1.183
 6902SOL    HW232766   3.259   3.216   1.338
 6903SOL     OW32767   3.598   3.224   1.289
 6903SOL    HW132768   3.628   3.269   1.373
 6903SOL    HW232769   3.498   3.221   1.288
 6904SOL     OW32770   2.298   2.800   0.051
 6904SOL    HW132771   2.217   2.819   9.994
 6904SOL    HW232772   2.299   2.863   0.129
 6905SOL     OW32773   2.867   2.996   1.350
 6905SOL    HW132774   2.859   2.905   1.309
 6905SOL    HW232775   2.799   3.057   1.310
 6906SOL     OW32776   1.904   2.642   0.212
 6906SOL    HW132777   1.984   2.584   0.231
 6906SOL    HW232778   1.824   2.606   0.261
 6907SOL     OW32779   3.436   2.660   0.441
 6907SOL    HW132780   3.507   2.590   0.445
 6907SOL    HW232781   3.459   2.727   0.370
 6908SOL     OW32782   2.813   3.649   0.942
 6908SOL    HW132783   2.796   3.565   0.891
 6908SOL    HW232784   2.870   3.629   1.021
 6909SOL     OW32785   2.576   2.785   0.083
 6909SOL    HW132786   2.624   2.698   0.098
 6909SOL    HW232787   2.479   2.767   0.068
 6910SOL     OW32788   1.969   2.105   1.409
 6910SOL    HW132789   2.050   2.126   1.355
 6910SOL    HW232790   1.888   2.143   1.364
 6911SOL     OW32791   2.827   2.753   1.239
 6911SOL    HW132792   2.832   2.748   1.139
 6911SOL    HW232793   2.744   2.706   1.270
 6912SOL     OW32794   2.775   3.411   0.816
 6912SOL    HW132795   2.847   3.342   0.827
 6912SOL    HW232796   2.735   3.404   0.725
 6913SOL     OW32797   2.660   2.228   0.326
 6913SOL    HW132798   2.590   2.181   0.380
 6913SOL    HW232799   2.750   2.208   0.364
 6914SOL     OW32800   2.809   3.138   0.233
 6914SOL    HW132801   2.866   3.139   0.315
 6914SOL    HW232802   2.857   3.183   0.158
 6915SOL     OW32803   3.634   3.486   0.700
 6915SOL    HW132804   3.583   3.567   0.727
 6915SOL    HW232805   3.623   3.471   0.601
 6916SOL     OW32806   3.032   2.715   0.581
 6916SOL    HW132807   3.079   2.745   0.664
 6916SOL    HW232808   2.946   2.765   0.571
 6917SOL     OW32809   2.658   3.531   1.683
 6917SOL    HW132810   2.560   3.519   1.669
 6917SOL    HW232811   2.687   3.474   1.760
 6918SOL     OW32812   3.156   2.796   0.811
 6918SOL    HW132813   3.214   2.780   0.891
 6918SOL    HW232814   3.092   2.870   0.830
 6919SOL     OW32815   2.801   2.859   0.538
 6919SOL    HW132816   2.749   2.789   0.488
 6919SOL    HW232817   2.739   2.932   0.566
 6920SOL     OW32818   3.108   3.255   1.428
 6920SOL    HW132819   3.162   3.323   1.479
 6920SOL    HW232820   3.031   3.300   1.383
 6921SOL     OW32821   3.506   3.601   0.228
 6921SOL    HW132822   3.602   3.624   0.218
 6921SOL    HW232823   3.458   3.620   0.142
 6922SOL     OW32824   2.624   2.643   1.397
 6922SOL    HW132825   2.632   2.730   1.447
 6922SOL    HW232826   2.668   2.570   1.450
 6923SOL     OW32827   1.921   3.688   1.423
 6923SOL    HW132828   1.875   3.777   1.433
 6923SOL    HW232829   1.912   3.637   1.509
 6924SOL     OW32830   2.650   2.670   0.395
 6924SOL    HW132831   2.553   2.692   0.388
 6924SOL    HW232832   2.682   2.634   0.307
 6925SOL     OW32833   2.225   2.234   0.856
 6925SOL    HW132834   2.274   2.283   0.783
 6925SOL    HW232835   2.280   2.235   0.939
 6926SOL     OW32836   3.151   3.560   1.147
 6926SOL    HW132837   3.185   3.607   1.065
 6926SOL    HW232838   3.154   3.461   1.132
 6927SOL     OW32839   1.811   2.989   1.032
 6927SOL    HW132840   1.758   2.989   0.947
 6927SOL    HW232841   1.808   2.899   1.074
 6928SOL     OW32842   2.562   1.866   0.407
 6928SOL    HW132843   2.608   1.885   0.320
 6928SOL    HW232844   2.521   1.950   0.442
 6929SOL     OW32845   1.963   2.866   0.474
 6929SOL    HW132846   2.048   2.915   0.497
 6929SOL    HW232847   1.932   2.894   0.383
 6930SOL     OW32848   3.348   2.096   1.665
 6930SOL    HW132849   3.335   2.189   1.632
 6930SOL    HW232850   3.416   2.095   1.738
 6931SOL     OW32851   3.412   1.844   1.582
 6931SOL    HW132852   3.468   1.859   1.501
 6931SOL    HW232853   3.377   1.932   1.615
 6932SOL     OW32854   2.563   2.163   0.738
 6932SOL    HW132855   2.554   2.095   0.811
 6932SOL    HW232856   2.654   2.204   0.741
 6933SOL     OW32857   3.165   2.579   1.155
 6933SOL    HW132858   3.220   2.639   1.097
 6933SOL    HW232859   3.195   2.588   1.250
 6934SOL     OW32860   3.385   1.786   0.519
 6934SOL    HW132861   3.407   1.792   0.421
 6934SOL    HW232862   3.309   1.847   0.539
 6935SOL     OW32863   2.460   3.271   1.816
 6935SOL    HW132864   2.423   3.336   1.750
 6935SOL    HW232865   2.547   3.305   1.852
 6936SOL     OW32866   1.895   3.247   1.113
 6936SOL    HW132867   1.880   3.156   1.075
 6936SOL    HW232868   1.831   3.263   1.189
 6937SOL     OW32869   2.921   2.512   0.844
 6937SOL    HW132870   3.007   2.548   0.810
 6937SOL    HW232871   2.932   2.481   0.939
 6938SOL     OW32872   3.334   2.314   1.906
 6938SOL    HW132873   3.419   2.321   1.853
 6938SOL    HW232874   3.347   2.250   1.981
 6939SOL     OW32875   3.171   2.617   0.373
 6939SOL    HW132876   3.117   2.649   0.450
 6939SOL    HW232877   3.269   2.624   0.395
 6940SOL     OW32878   3.403   2.804   0.675
 6940SOL    HW132879   3.403   2.754   0.588
 6940SOL    HW232880   3.310   2.805   0.712
 6941SOL     OW32881   1.991   2.150   1.686
 6941SOL    HW132882   1.982   2.136   1.588
 6941SOL    HW232883   1.903   2.132   1.731
 6942SOL     OW32884   1.905   3.540   1.658
 6942SOL    HW132885   1.992   3.550   1.706
 6942SOL    HW232886   1.830   3.551   1.723
 6943SOL     OW32887   3.257   3.453   1.535
 6943SOL    HW132888   3.185   3.512   1.569
 6943SOL    HW232889   3.310   3.500   1.464
 6944SOL     OW32890   2.105   2.455   0.260
 6944SOL    HW132891   2.172   2.482   0.191
 6944SOL    HW232892   2.123   2.503   0.346
 6945SOL     OW32893   3.014   3.449   1.852
 6945SOL    HW132894   2.989   3.354   1.835
 6945SOL    HW232895   3.026   3.497   1.765
 6946SOL     OW32896   2.618   3.074   0.548
 6946SOL    HW132897   2.604   3.039   0.455
 6946SOL    HW232898   2.539   3.050   0.604
 6947SOL     OW32899   2.264   2.601   0.721
 6947SOL    HW132900   2.326   2.667   0.763
 6947SOL    HW232901   2.309   2.512   0.714
 6948SOL     OW32902   2.144   2.189   0.188
 6948SOL    HW132903   2.203   2.176   0.108
 6948SOL    HW232904   2.132   2.287   0.205
 6949SOL     OW32905   2.340   2.981   0.263
 6949SOL    HW132906   2.439   2.984   0.275
 6949SOL    HW232907   2.308   3.069   0.229
 6950SOL     OW32908   2.977   2.555   0.019
 6950SOL    HW132909   2.981   2.636   9.961
 6950SOL    HW232910   3.070   2.519   0.031
 6951SOL     OW32911   2.720   2.553   0.151
 6951SOL    HW132912   2.806   2.556   0.101
 6951SOL    HW232913   2.681   2.461   0.146
 6952SOL     OW32914   3.130   1.916   0.586
 6952SOL    HW132915   3.075   1.982   0.638
 6952SOL    HW232916   3.082   1.892   0.502
 6953SOL     OW32917   3.284   2.356   1.584
 6953SOL    HW132918   3.211   2.375   1.650
 6953SOL    HW232919   3.283   2.425   1.512
 6954SOL     OW32920   1.993   1.975   0.092
 6954SOL    HW132921   2.050   1.921   0.031
 6954SOL    HW232922   2.047   2.050   0.130
 6955SOL     OW32923   3.506   2.827   0.244
 6955SOL    HW132924   3.596   2.868   0.229
 6955SOL    HW232925   3.454   2.829   0.159
 6956SOL     OW32926   2.471   2.544   1.188
 6956SOL    HW132927   2.514   2.582   1.270
 6956SOL    HW232928   2.386   2.498   1.213
 6957SOL     OW32929   2.686   2.877   1.533
 6957SOL    HW132930   2.759   2.926   1.486
 6957SOL    HW232931   2.643   2.937   1.600
 6958SOL     OW32932   3.016   2.895   1.699
 6958SOL    HW132933   2.930   2.850   1.724
 6958SOL    HW232934   3.093   2.834   1.719
 6959SOL     OW32935   2.947   2.070   0.723
 6959SOL    HW132936   2.895   2.155   0.724
 6959SOL    HW232937   2.926   2.017   0.805
 6960SOL     OW32938   3.043   3.603   1.620
 6960SOL    HW132939   2.957   3.613   1.569
 6960SOL    HW232940   3.082   3.693   1.638
 6961SOL     OW32941   2.519   1.988   0.942
 6961SOL    HW132942   2.425   1.956   0.929
 6961SOL    HW232943   2.576   1.912   0.973
 6962SOL     OW32944   2.145   3.682   1.263
 6962SOL    HW132945   2.120   3.617   1.191
 6962SOL    HW232946   2.070   3.689   1.329
 6963SOL     OW32947   2.982   2.987   0.896
 6963SOL    HW132948   2.974   3.072   0.844
 6963SOL    HW232949   3.007   3.008   0.991
 6964SOL     OW32950   2.462   2.764   0.843
 6964SOL    HW132951   2.521   2.689   0.813
 6964SOL    HW232952   2.473   2.778   0.942
 6965SOL     OW32953   1.778   2.723   1.134
 6965SOL    HW132954   1.769   2.728   1.234
 6965SOL    HW232955   1.839   2.648   1.109
 6966SOL     OW32956   2.078   1.892   0.479
 6966SOL    HW132957   2.116   1.984   0.468
 6966SOL    HW232958   2.121   1.847   0.557
 6967SOL     OW32959   2.523   2.474   1.679
 6967SOL    HW132960   2.459   2.479   1.603
 6967SOL    HW232961   2.617   2.473   1.643
 6968SOL     OW32962   1.902   2.915   0.209
 6968SOL    HW132963   1.913   2.817   0.193
 6968SOL    HW232964   1.961   2.965   0.145
 6969SOL     OW32965   3.026   2.397   0.295
 6969SOL    HW132966   3.087   2.468   0.331
 6969SOL    HW232967   2.970   2.435   0.222
 6970SOL     OW32968   3.422   3.309   1.697
 6970SOL    HW132969   3.379   3.227   1.736
 6970SOL    HW232970   3.357   3.355   1.637
 6971SOL     OW32971   2.572   3.218   0.106
 6971SOL    HW132972   2.548   3.309   0.140
 6971SOL    HW232973   2.657   3.188   0.148
 6972SOL     OW32974   2.734   3.336   0.545
 6972SOL    HW132975   2.810   3.336   0.479
 6972SOL    HW232976   2.695   3.244   0.550
 6973SOL     OW32977   2.012   2.594   0.832
 6973SOL    HW132978   2.104   2.598   0.792
 6973SOL    HW232979   1.947   2.636   0.769
 6974SOL     OW32980   2.066   2.670   1.809
 6974SOL    HW132981   2.077   2.576   1.778
 6974SOL    HW232982   2.006   2.673   1.888
 6975SOL     OW32983   2.802   3.633   1.465
 6975SOL    HW132984   2.755   3.580   1.536
 6975SOL    HW232985   2.746   3.711   1.438
 6976SOL     OW32986   3.068   3.045   1.154
 6976SOL    HW132987   3.003   3.040   1.231
 6976SOL    HW232988   3.152   2.997   1.178
 6977SOL     OW32989   2.380   2.234   1.814
 6977SOL    HW132990   2.448   2.221   1.742
 6977SOL    HW232991   2.396   2.322   1.859
 6978SOL     OW32992   2.384   2.721   0.367
 6978SOL    HW132993   2.362   2.812   0.334
 6978SOL    HW232994   2.301   2.679   0.405
 6979SOL     OW32995   3.320   2.798   1.030
 6979SOL    HW132996   3.389   2.854   0.983
 6979SOL    HW232997   3.309   2.832   1.124
 6980SOL     OW32998   1.825   1.844   0.592
 6980SOL    HW132999   1.747   1.884   0.543
 6980SOL    HW233000   1.910   1.874   0.548
 6981SOL     OW33001   3.084   2.011   1.675
 6981SOL    HW133002   3.178   2.046   1.675
 6981SOL    HW233003   3.026   2.075   1.726
 6982SOL     OW33004   2.378   3.493   1.662
 6982SOL    HW133005   2.295   3.513   1.714
 6982SOL    HW233006   2.375   3.542   1.575
 6983SOL     OW33007   3.649   3.332   1.532
 6983SOL    HW133008   3.698   3.415   1.561
 6983SOL    HW233009   3.572   3.316   1.594
 6984SOL     OW33010   2.938   2.428   1.103
 6984SOL    HW133011   3.014   2.489   1.127
 6984SOL    HW233012   2.950   2.341   1.150
 6985SOL     OW33013   2.934   3.431   1.313
 6985SOL    HW133014   2.873   3.496   1.359
 6985SOL    HW233015   2.991   3.479   1.247
 6986SOL     OW33016   2.144   3.595   1.795
 6986SOL    HW133017   2.168   3.691   1.778
 6986SOL    HW233018   2.142   3.578   1.893
 6987SOL     OW33019   1.918   3.101   1.733
 6987SOL    HW133020   1.927   3.018   1.680
 6987SOL    HW233021   1.875   3.173   1.678
 6988SOL     OW33022   2.013   3.495   1.080
 6988SOL    HW133023   1.981   3.402   1.099
 6988SOL    HW233024   2.034   3.504   0.983
 6989SOL     OW33025   2.897   1.914   0.953
 6989SOL    HW133026   2.928   1.929   1.047
 6989SOL    HW233027   2.808   1.869   0.954
 6990SOL     OW33028   2.950   3.091   0.476
 6990SOL    HW133029   3.047   3.088   0.499
 6990SOL    HW233030   2.908   3.002   0.497
 6991SOL     OW33031   2.608   2.968   0.290
 6991SOL    HW133032   2.686   3.028   0.273
 6991SOL    HW233033   2.611   2.890   0.228
 6992SOL     OW33034   2.655   1.986   0.170
 6992SOL    HW133035   2.736   1.931   0.151
 6992SOL    HW233036   2.682   2.070   0.216
 6993SOL     OW33037   2.386   2.356   0.666
 6993SOL    HW133038   2.448   2.287   0.704
 6993SOL    HW233039   2.432   2.404   0.591
 6994SOL     OW33040   3.554   2.961   1.354
 6994SOL    HW133041   3.579   3.055   1.331
 6994SOL    HW233042   3.629   2.900   1.330
 6995SOL     OW33043   2.072   3.084   0.051
 6995SOL    HW133044   1.984   3.130   0.035
 6995SOL    HW233045   2.135   3.148   0.096
 6996SOL     OW33046   2.497   3.450   0.224
 6996SOL    HW133047   2.489   3.533   0.168
 6996SOL    HW233048   2.513   3.475   0.319
 6997SOL     OW33049   3.158   3.000   1.493
 6997SOL    HW133050   3.096   2.961   1.561
 6997SOL    HW233051   3.128   3.093   1.471
 6998SOL     OW33052   2.364   3.656   1.443
 6998SOL    HW133053   2.433   3.725   1.420
 6998SOL    HW233054   2.289   3.661   1.378
 6999SOL     OW33055   2.102   2.398   1.772
 6999SOL    HW133056   2.059   2.315   1.737
 6999SOL    HW233057   2.201   2.383   1.781
 7000SOL     OW33058   3.510   3.373   1.067
 7000SOL    HW133059   3.542   3.465   1.089
 7000SOL    HW233060   3.538   3.309   1.138
 7001SOL     OW33061   1.841   2.691   0.640
 7001SOL    HW133062   1.884   2.762   0.583
 7001SOL    HW233063   1.743   2.709   0.646
 7002SOL     OW33064   2.338   2.503   1.478
 7002SOL    HW133065   2.285   2.463   1.403
 7002SOL    HW233066   2.315   2.600   1.487
 7003SOL     OW33067   3.483   2.988   0.874
 7003SOL    HW133068   3.469   3.085   0.852
 7003SOL    HW233069   3.460   2.933   0.794
 7004SOL     OW33070   2.643   2.409   1.028
 7004SOL    HW133071   2.739   2.418   1.056
 7004SOL    HW233072   2.586   2.468   1.086
 7005SOL     OW33073   1.978   2.527   1.087
 7005SOL    HW133074   2.040   2.588   1.136
 7005SOL    HW233075   1.988   2.541   0.989
 7006SOL     OW33076   3.518   3.556   1.778
 7006SOL    HW133077   3.484   3.464   1.762
 7006SOL    HW233078   3.486   3.617   1.705
 7007SOL     OW33079   3.219   3.081   0.525
 7007SOL    HW133080   3.311   3.092   0.562
 7007SOL    HW233081   3.224   3.049   0.430
 7008SOL     OW33082   2.468   2.110   0.485
 7008SOL    HW133083   2.369   2.123   0.480
 7008SOL    HW233084   2.499   2.124   0.579
 7009SOL     OW33085   2.964   2.608   1.431
 7009SOL    HW133086   3.063   2.620   1.433
 7009SOL    HW233087   2.925   2.662   1.357
 7010SOL     OW33088   2.598   2.543   0.785
 7010SOL    HW133089   2.623   2.487   0.864
 7010SOL    HW233090   2.627   2.496   0.701
 7011SOL     OW33091   3.153   3.300   1.073
 7011SOL    HW133092   3.109   3.212   1.092
 7011SOL    HW233093   3.165   3.311   0.975
 7012SOL     OW33094   2.928   3.309   2.594
 7012SOL    HW133095   3.024   3.337   2.592
 7012SOL    HW233096   2.884   3.334   2.508
 7013SOL     OW33097   3.423   3.152   2.418
 7013SOL    HW133098   3.427   3.213   2.497
 7013SOL    HW233099   3.513   3.111   2.403
 7014SOL     OW33100   3.487   2.506   3.224
 7014SOL    HW133101   3.419   2.457   3.278
 7014SOL    HW233102   3.539   2.567   3.284
 7015SOL     OW33103   2.192   2.047   1.840
 7015SOL    HW133104   2.116   2.075   1.781
 7015SOL    HW233105   2.267   2.111   1.829
 7016SOL     OW33106   3.190   3.394   2.653
 7016SOL    HW133107   3.197   3.492   2.674
 7016SOL    HW233108   3.282   3.358   2.638
 7017SOL     OW33109   3.062   1.924   3.171
 7017SOL    HW133110   2.990   1.875   3.219
 7017SOL    HW233111   3.100   1.866   3.099
 7018SOL     OW33112   2.829   2.705   3.576
 7018SOL    HW133113   2.819   2.643   3.498
 7018SOL    HW233114   2.739   2.728   3.612
 7019SOL     OW33115   2.410   3.331   2.268
 7019SOL    HW133116   2.370   3.362   2.354
 7019SOL    HW233117   2.482   3.264   2.287
 7020SOL     OW33118   2.372   1.884   1.989
 7020SOL    HW133119   2.466   1.919   1.997
 7020SOL    HW233120   2.319   1.945   1.930
 7021SOL     OW33121   3.441   2.902   3.389
 7021SOL    HW133122   3.346   2.918   3.366
 7021SOL    HW233123   3.500   2.929   3.313
 7022SOL     OW33124   3.294   2.892   3.071
 7022SOL    HW133125   3.246   2.894   3.159
 7022SOL    HW233126   3.323   2.985   3.047
 7023SOL     OW33127   2.840   3.210   3.304
 7023SOL    HW133128   2.754   3.260   3.302
 7023SOL    HW233129   2.837   3.134   3.239
 7024SOL     OW33130   2.320   3.067   2.544
 7024SOL    HW133131   2.268   3.013   2.610
 7024SOL    HW233132   2.417   3.044   2.551
 7025SOL     OW33133   2.564   2.478   2.418
 7025SOL    HW133134   2.594   2.556   2.364
 7025SOL    HW233135   2.541   2.401   2.358
 7026SOL     OW33136   3.106   2.371   3.578
 7026SOL    HW133137   3.200   2.354   3.609
 7026SOL    HW233138   3.059   2.284   3.567
 7027SOL     OW33139   2.284   3.240   2.033
 7027SOL    HW133140   2.339   3.253   1.951
 7027SOL    HW233141   2.333   3.277   2.112
 7028SOL     OW33142   2.396   2.173   2.859
 7028SOL    HW133143   2.459   2.251   2.858
 7028SOL    HW233144   2.442   2.093   2.820
 7029SOL     OW33145   2.187   2.583   2.352
 7029SOL    HW133146   2.221   2.615   2.440
 7029SOL    HW233147   2.090   2.560   2.361
 7030SOL     OW33148   2.591   3.567   2.454
 7030SOL    HW133149   2.656   3.499   2.419
 7030SOL    HW233150   2.591   3.647   2.394
 7031SOL     OW33151   3.592   3.474   2.224
 7031SOL    HW133152   3.684   3.440   2.204
 7031SOL    HW233153   3.563   3.537   2.152
 7032SOL     OW33154   3.532   2.176   2.967
 7032SOL    HW133155   3.569   2.269   2.975
 7032SOL    HW233156   3.432   2.179   2.964
 7033SOL     OW33157   2.926   2.212   2.202
 7033SOL    HW133158   2.973   2.300   2.200
 7033SOL    HW233159   2.928   2.175   2.295
 7034SOL     OW33160   1.999   2.831   3.436
 7034SOL    HW133161   2.092   2.866   3.444
 7034SOL    HW233162   1.966   2.803   3.526
 7035SOL     OW33163   2.366   2.507   1.896
 7035SOL    HW133164   2.336   2.602   1.906
 7035SOL    HW233165   2.431   2.500   1.820
 7036SOL     OW33166   2.531   3.425   2.679
 7036SOL    HW133167   2.570   3.482   2.607
 7036SOL    HW233168   2.449   3.379   2.644
 7037SOL     OW33169   2.831   2.508   3.380
 7037SOL    HW133170   2.849   2.418   3.420
 7037SOL    HW233171   2.909   2.536   3.324
 7038SOL     OW33172   3.457   3.306   2.649
 7038SOL    HW133173   3.472   3.331   2.745
 7038SOL    HW233174   3.516   3.363   2.591
 7039SOL     OW33175   2.152   3.079   2.329
 7039SOL    HW133176   2.215   3.074   2.407
 7039SOL    HW233177   2.191   3.030   2.251
 7040SOL     OW33178   3.075   2.057   2.021
 7040SOL    HW133179   3.149   1.995   2.047
 7040SOL    HW233180   3.035   2.097   2.103
 7041SOL     OW33181   2.235   2.384   3.134
 7041SOL    HW133182   2.236   2.285   3.119
 7041SOL    HW233183   2.157   2.424   3.086
 7042SOL     OW33184   3.272   2.619   3.097
 7042SOL    HW133185   3.285   2.718   3.084
 7042SOL    HW233186   3.354   2.580   3.138
 7043SOL     OW33187   2.238   2.149   2.296
 7043SOL    HW133188   2.190   2.188   2.374
 7043SOL    HW233189   2.185   2.166   2.212
 7044SOL     OW33190   3.397   3.582   3.164
 7044SOL    HW133191   3.326   3.584   3.093
 7044SOL    HW233192   3.487   3.581   3.121
 7045SOL     OW33193   3.624   2.430   3.002
 7045SOL    HW133194   3.717   2.465   3.007
 7045SOL    HW233195   3.574   2.458   3.084
 7046SOL     OW33196   3.662   3.567   3.064
 7046SOL    HW133197   3.703   3.574   3.155
 7046SOL    HW233198   3.734   3.561   2.995
 7047SOL     OW33199   2.781   2.337   2.523
 7047SOL    HW133200   2.848   2.384   2.580
 7047SOL    HW233201   2.713   2.402   2.489
 7048SOL     OW33202   3.069   2.824   2.009
 7048SOL    HW133203   3.091   2.787   2.100
 7048SOL    HW233204   3.017   2.755   1.958
 7049SOL     OW33205   2.955   2.132   3.559
 7049SOL    HW133206   2.968   2.129   3.658
 7049SOL    HW233207   2.873   2.081   3.534
 7050SOL     OW33208   3.565   2.532   2.223
 7050SOL    HW133209   3.532   2.440   2.243
 7050SOL    HW233210   3.644   2.553   2.279
 7051SOL     OW33211   2.856   3.638   2.014
 7051SOL    HW133212   2.885   3.581   1.938
 7051SOL    HW233213   2.871   3.589   2.100
 7052SOL     OW33214   2.727   1.942   3.521
 7052SOL    HW133215   2.707   1.844   3.514
 7052SOL    HW233216   2.689   1.978   3.606
 7053SOL     OW33217   3.534   2.524   2.760
 7053SOL    HW133218   3.492   2.614   2.771
 7053SOL    HW233219   3.562   2.490   2.850
 7054SOL     OW33220   2.943   3.165   3.580
 7054SOL    HW133221   2.982   3.073   3.573
 7054SOL    HW233222   2.894   3.188   3.496
 7055SOL     OW33223   2.595   2.999   3.572
 7055SOL    HW133224   2.534   3.073   3.600
 7055SOL    HW233225   2.594   2.927   3.641
 7056SOL     OW33226   3.246   1.816   2.723
 7056SOL    HW133227   3.200   1.905   2.728
 7056SOL    HW233228   3.338   1.829   2.687
 7057SOL     OW33229   3.600   2.115   3.635
 7057SOL    HW133230   3.549   2.165   3.704
 7057SOL    HW233231   3.640   2.033   3.676
 7058SOL     OW33232   1.927   2.535   2.432
 7058SOL    HW133233   1.933   2.465   2.503
 7058SOL    HW233234   1.901   2.622   2.473
 7059SOL     OW33235   2.205   2.049   2.666
 7059SOL    HW133236   2.260   2.100   2.732
 7059SOL    HW233237   2.256   1.968   2.637
 7060SOL     OW33238   2.230   2.102   3.076
 7060SOL    HW133239   2.213   2.004   3.081
 7060SOL    HW233240   2.291   2.122   2.999
 7061SOL     OW33241   2.882   2.676   2.767
 7061SOL    HW133242   2.876   2.737   2.688
 7061SOL    HW233243   2.915   2.587   2.738
 7062SOL     OW33244   2.091   3.340   2.255
 7062SOL    HW133245   2.102   3.244   2.282
 7062SOL    HW233246   2.149   3.359   2.175
 7063SOL     OW33247   3.311   3.173   3.072
 7063SOL    HW133248   3.267   3.202   2.987
 7063SOL    HW233249   3.247   3.183   3.148
 7064SOL     OW33250   2.091   3.504   2.481
 7064SOL    HW133251   2.023   3.578   2.477
 7064SOL    HW233252   2.086   3.450   2.396
 7065SOL     OW33253   3.575   3.219   3.122
 7065SOL    HW133254   3.594   3.252   3.215
 7065SOL    HW233255   3.478   3.201   3.112
 7066SOL     OW33256   2.300   2.776   1.907
 7066SOL    HW133257   2.214   2.754   1.861
 7066SOL    HW233258   2.285   2.852   1.971
 7067SOL     OW33259   2.818   3.002   3.127
 7067SOL    HW133260   2.855   2.912   3.103
 7067SOL    HW233261   2.753   3.031   3.056
 7068SOL     OW33262   1.947   2.620   2.054
 7068SOL    HW133263   2.025   2.559   2.063
 7068SOL    HW233264   1.869   2.582   2.103
 7069SOL     OW33265   3.404   2.747   2.261
 7069SOL    HW133266   3.462   2.667   2.246
 7069SOL    HW233267   3.428   2.818   2.195
 7070SOL     OW33268   2.712   3.661   2.868
 7070SOL    HW133269   2.755   3.575   2.840
 7070SOL    HW233270   2.631   3.641   2.923
 7071SOL     OW33271   2.576   2.765   1.935
 7071SOL    HW133272   2.605   2.676   1.970
 7071SOL    HW233273   2.477   2.765   1.921
 7072SOL     OW33274   3.212   2.309   2.309
 7072SOL    HW133275   3.166   2.367   2.242
 7072SOL    HW233276   3.311   2.320   2.301
 7073SOL     OW33277   2.041   2.113   3.285
 7073SOL    HW133278   2.108   2.117   3.212
 7073SOL    HW233279   1.950   2.100   3.246
 7074SOL     OW33280   2.869   2.748   3.030
 7074SOL    HW133281   2.874   2.724   2.934
 7074SOL    HW233282   2.789   2.706   3.071
 7075SOL     OW33283   3.491   2.279   2.325
 7075SOL    HW133284   3.586   2.254   2.304
 7075SOL    HW233285   3.481   2.289   2.423
 7076SOL     OW33286   2.780   3.404   2.800
 7076SOL    HW133287   2.841   3.371   2.727
 7076SOL    HW233288   2.685   3.395   2.770
 7077SOL     OW33289   2.688   2.231   2.078
 7077SOL    HW133290   2.616   2.230   2.148
 7077SOL    HW233291   2.777   2.224   2.122
 7078SOL     OW33292   2.811   3.157   2.040
 7078SOL    HW133293   2.853   3.132   2.127
 7078SOL    HW233294   2.880   3.155   1.968
 7079SOL     OW33295   3.606   3.474   2.497
 7079SOL    HW133296   3.570   3.559   2.536
 7079SOL    HW233297   3.593   3.475   2.397
 7080SOL     OW33298   3.020   2.735   2.479
 7080SOL    HW133299   3.075   2.771   2.554
 7080SOL    HW233300   2.940   2.792   2.465
 7081SOL     OW33301   2.701   3.463   3.489
 7081SOL    HW133302   2.654   3.407   3.421
 7081SOL    HW233303   2.701   3.417   3.577
 7082SOL     OW33304   3.183   2.820   2.685
 7082SOL    HW133305   3.261   2.790   2.740
 7082SOL    HW233306   3.126   2.882   2.739
 7083SOL     OW33307   2.176   2.921   2.721
 7083SOL    HW133308   2.082   2.953   2.730
 7083SOL    HW233309   2.214   2.903   2.812
 7084SOL     OW33310   2.779   2.857   2.420
 7084SOL    HW133311   2.738   2.791   2.356
 7084SOL    HW233312   2.707   2.896   2.478
 7085SOL     OW33313   3.115   3.209   3.264
 7085SOL    HW133314   3.158   3.294   3.293
 7085SOL    HW233315   3.016   3.214   3.280
 7086SOL     OW33316   1.895   2.182   2.275
 7086SOL    HW133317   1.954   2.197   2.195
 7086SOL    HW233318   1.949   2.191   2.358
 7087SOL     OW33319   3.534   3.661   2.028
 7087SOL    HW133320   3.619   3.713   2.032
 7087SOL    HW233321   3.527   3.616   1.939
 7088SOL     OW33322   2.671   2.649   3.206
 7088SOL    HW133323   2.674   2.737   3.254
 7088SOL    HW233324   2.719   2.580   3.259
 7089SOL     OW33325   1.949   3.622   3.231
 7089SOL    HW133326   1.906   3.712   3.232
 7089SOL    HW233327   1.938   3.579   3.321
 7090SOL     OW33328   2.644   2.680   2.255
 7090SOL    HW133329   2.549   2.707   2.240
 7090SOL    HW233330   2.677   2.629   2.175
 7091SOL     OW33331   2.182   2.385   2.766
 7091SOL    HW133332   2.237   2.372   2.683
 7091SOL    HW233333   2.230   2.347   2.844
 7092SOL     OW33334   2.167   3.613   2.072
 7092SOL    HW133335   2.256   3.644   2.038
 7092SOL    HW233336   2.154   3.646   2.166
 7093SOL     OW33337   3.182   3.578   2.987
 7093SOL    HW133338   3.206   3.602   2.893
 7093SOL    HW233339   3.108   3.512   2.987
 7094SOL     OW33340   1.926   3.019   2.805
 7094SOL    HW133341   1.839   3.011   2.756
 7094SOL    HW233342   1.924   2.960   2.886
 7095SOL     OW33343   2.560   1.911   2.283
 7095SOL    HW133344   2.588   1.909   2.187
 7095SOL    HW233345   2.537   2.004   2.309
 7096SOL     OW33346   1.898   2.964   2.381
 7096SOL    HW133347   1.983   3.015   2.388
 7096SOL    HW233348   1.888   2.929   2.287
 7097SOL     OW33349   3.444   2.146   3.408
 7097SOL    HW133350   3.399   2.235   3.409
 7097SOL    HW233351   3.495   2.133   3.493
 7098SOL     OW33352   3.141   2.071   2.758
 7098SOL    HW133353   3.149   2.139   2.686
 7098SOL    HW233354   3.183   2.106   2.842
 7099SOL     OW33355   3.298   1.869   2.075
 7099SOL    HW133356   3.391   1.844   2.047
 7099SOL    HW233357   3.236   1.794   2.056
 7100SOL     OW33358   3.447   1.858   3.394
 7100SOL    HW133359   3.423   1.827   3.302
 7100SOL    HW233360   3.429   1.956   3.401
 7101SOL     OW33361   2.563   2.168   2.548
 7101SOL    HW133362   2.555   2.092   2.613
 7101SOL    HW233363   2.650   2.215   2.562
 7102SOL     OW33364   3.137   2.448   2.936
 7102SOL    HW133365   3.123   2.492   2.847
 7102SOL    HW233366   3.186   2.511   2.997
 7103SOL     OW33367   3.402   1.910   2.344
 7103SOL    HW133368   3.393   1.856   2.260
 7103SOL    HW233369   3.317   1.961   2.360
 7104SOL     OW33370   2.436   3.233   3.643
 7104SOL    HW133371   2.390   3.291   3.576
 7104SOL    HW233372   2.523   3.274   3.669
 7105SOL     OW33373   2.249   2.943   3.451
 7105SOL    HW133374   2.323   2.916   3.389
 7105SOL    HW233375   2.225   3.039   3.433
 7106SOL     OW33376   2.045   3.248   2.912
 7106SOL    HW133377   2.003   3.172   2.864
 7106SOL    HW233378   1.974   3.311   2.944
 7107SOL     OW33379   2.972   2.426   2.693
 7107SOL    HW133380   3.052   2.379   2.655
 7107SOL    HW233381   2.939   2.376   2.773
 7108SOL     OW33382   3.591   2.487   3.572
 7108SOL    HW133383   3.592   2.560   3.504
 7108SOL    HW233384   3.685   2.461   3.594
 7109SOL     OW33385   3.256   2.204   2.973
 7109SOL    HW133386   3.217   2.294   2.956
 7109SOL    HW233387   3.239   2.177   3.068
 7110SOL     OW33388   3.368   2.342   3.649
 7110SOL    HW133389   3.445   2.398   3.616
 7110SOL    HW233390   3.394   2.298   3.734
 7111SOL     OW33391   3.139   2.696   2.241
 7111SOL    HW133392   3.093   2.708   2.329
 7111SOL    HW233393   3.237   2.714   2.252
 7112SOL     OW33394   3.408   2.836   2.518
 7112SOL    HW133395   3.404   2.807   2.422
 7112SOL    HW233396   3.317   2.827   2.559
 7113SOL     OW33397   3.615   2.687   3.384
 7113SOL    HW133398   3.547   2.760   3.381
 7113SOL    HW233399   3.707   2.726   3.379
 7114SOL     OW33400   3.406   2.131   2.099
 7114SOL    HW133401   3.432   2.171   2.186
 7114SOL    HW233402   3.356   2.046   2.114
 7115SOL     OW33403   2.584   3.335   3.277
 7115SOL    HW133404   2.523   3.412   3.262
 7115SOL    HW233405   2.551   3.256   3.225
 7116SOL     OW33406   2.022   2.082   3.552
 7116SOL    HW133407   2.032   2.089   3.453
 7116SOL    HW233408   1.926   2.064   3.575
 7117SOL     OW33409   1.904   3.539   3.497
 7117SOL    HW133410   1.991   3.553   3.544
 7117SOL    HW233411   1.829   3.560   3.560
 7118SOL     OW33412   2.047   2.191   2.499
 7118SOL    HW133413   2.002   2.261   2.554
 7118SOL    HW233414   2.105   2.134   2.557
 7119SOL     OW33415   3.242   3.433   3.340
 7119SOL    HW133416   3.178   3.495   3.385
 7119SOL    HW233417   3.301   3.484   3.278
 7120SOL     OW33418   2.171   2.452   2.098
 7120SOL    HW133419   2.244   2.469   2.032
 7120SOL    HW233420   2.194   2.493   2.186
 7121SOL     OW33421   3.637   2.100   3.215
 7121SOL    HW133422   3.564   2.121   3.281
 7121SOL    HW233423   3.603   2.116   3.122
 7122SOL     OW33424   2.338   3.659   2.556
 7122SOL    HW133425   2.255   3.620   2.515
 7122SOL    HW233426   2.418   3.623   2.509
 7123SOL     OW33427   2.216   3.124   3.090
 7123SOL    HW133428   2.195   3.149   3.185
 7123SOL    HW233429   2.154   3.172   3.028
 7124SOL     OW33430   3.011   3.421   3.675
 7124SOL    HW133431   2.985   3.328   3.648
 7124SOL    HW233432   3.028   3.476   3.593
 7125SOL     OW33433   2.594   3.141   2.338
 7125SOL    HW133434   2.605   3.080   2.259
 7125SOL    HW233435   2.594   3.088   2.422
 7126SOL     OW33436   2.252   2.678   2.602
 7126SOL    HW133437   2.230   2.768   2.638
 7126SOL    HW233438   2.339   2.647   2.639
 7127SOL     OW33439   2.082   2.190   2.067
 7127SOL    HW133440   2.121   2.144   1.988
 7127SOL    HW233441   2.103   2.288   2.063
 7128SOL     OW33442   1.933   2.379   2.657
 7128SOL    HW133443   1.859   2.427   2.705
 7128SOL    HW233444   2.018   2.388   2.708
 7129SOL     OW33445   2.326   2.979   2.112
 7129SOL    HW133446   2.426   2.984   2.116
 7129SOL    HW233447   2.290   3.065   2.075
 7130SOL     OW33448   2.945   2.578   1.897
 7130SOL    HW133449   2.892   2.634   1.833
 7130SOL    HW233450   3.004   2.516   1.846
 7131SOL     OW33451   2.704   2.528   2.031
 7131SOL    HW133452   2.793   2.542   1.989
 7131SOL    HW233453   2.683   2.430   2.034
 7132SOL     OW33454   3.168   2.045   2.357
 7132SOL    HW133455   3.078   2.040   2.400
 7132SOL    HW233456   3.189   2.140   2.334
 7133SOL     OW33457   3.283   2.378   3.349
 7133SOL    HW133458   3.222   2.411   3.420
 7133SOL    HW233459   3.237   2.307   3.296
 7134SOL     OW33460   1.924   1.937   2.024
 7134SOL    HW133461   1.994   1.871   2.050
 7134SOL    HW233462   1.953   2.029   2.052
 7135SOL     OW33463   2.275   2.879   2.973
 7135SOL    HW133464   2.244   2.805   3.032
 7135SOL    HW233465   2.256   2.967   3.017
 7136SOL     OW33466   3.476   2.922   2.071
 7136SOL    HW133467   3.565   2.966   2.083
 7136SOL    HW233468   3.464   2.897   1.974
 7137SOL     OW33469   2.478   2.530   3.039
 7137SOL    HW133470   2.539   2.581   3.101
 7137SOL    HW233471   2.395   2.504   3.088
 7138SOL     OW33472   2.694   2.881   3.348
 7138SOL    HW133473   2.755   2.938   3.292
 7138SOL    HW233474   2.675   2.928   3.434
 7139SOL     OW33475   3.018   2.900   3.533
 7139SOL    HW133476   2.940   2.838   3.543
 7139SOL    HW233477   3.101   2.855   3.567
 7140SOL     OW33478   2.916   2.109   2.460
 7140SOL    HW133479   2.867   2.195   2.480
 7140SOL    HW233480   2.902   2.045   2.536
 7141SOL     OW33481   3.055   3.587   3.460
 7141SOL    HW133482   2.979   3.605   3.397
 7141SOL    HW233483   3.082   3.671   3.506
 7142SOL     OW33484   2.514   1.967   2.725
 7142SOL    HW133485   2.457   1.907   2.670
 7142SOL    HW233486   2.589   1.915   2.765
 7143SOL     OW33487   2.196   3.658   3.104
 7143SOL    HW133488   2.192   3.607   3.019
 7143SOL    HW233489   2.112   3.644   3.156
 7144SOL     OW33490   2.823   3.081   2.703
 7144SOL    HW133491   2.858   3.163   2.657
 7144SOL    HW233492   2.897   3.034   2.749
 7145SOL     OW33493   2.495   2.839   2.796
 7145SOL    HW133494   2.508   2.745   2.766
 7145SOL    HW233495   2.420   2.843   2.863
 7146SOL     OW33496   1.903   2.847   3.017
 7146SOL    HW133497   1.974   2.801   3.069
 7146SOL    HW233498   1.848   2.778   2.968
 7147SOL     OW33499   2.155   1.887   2.357
 7147SOL    HW133500   2.190   1.979   2.343
 7147SOL    HW233501   2.057   1.890   2.373
 7148SOL     OW33502   1.898   2.887   2.123
 7148SOL    HW133503   1.920   2.795   2.090
 7148SOL    HW233504   1.948   2.955   2.068
 7149SOL     OW33505   3.612   2.096   2.713
 7149SOL    HW133506   3.588   2.113   2.809
 7149SOL    HW233507   3.711   2.095   2.704
 7150SOL     OW33508   2.645   3.043   2.913
 7150SOL    HW133509   2.594   2.964   2.878
 7150SOL    HW233510   2.708   3.076   2.843
 7151SOL     OW33511   3.049   2.460   2.143
 7151SOL    HW133512   3.079   2.545   2.187
 7151SOL    HW233513   3.014   2.481   2.051
 7152SOL     OW33514   3.379   3.284   3.523
 7152SOL    HW133515   3.334   3.204   3.562
 7152SOL    HW233516   3.317   3.327   3.457
 7153SOL     OW33517   2.087   2.726   3.190
 7153SOL    HW133518   2.177   2.691   3.218
 7153SOL    HW233519   2.041   2.765   3.270
 7154SOL     OW33520   2.694   3.375   1.911
 7154SOL    HW133521   2.643   3.430   1.978
 7154SOL    HW233522   2.742   3.301   1.959
 7155SOL     OW33523   2.465   3.537   2.920
 7155SOL    HW133524   2.493   3.492   2.835
 7155SOL    HW233525   2.366   3.527   2.932
 7156SOL     OW33526   2.593   2.990   2.584
 7156SOL    HW133527   2.675   3.033   2.622
 7156SOL    HW233528   2.552   2.930   2.653
 7157SOL     OW33529   2.769   3.364   2.370
 7157SOL    HW133530   2.836   3.378   2.298
 7157SOL    HW233531   2.716   3.281   2.352
 7158SOL     OW33532   2.009   2.652   2.771
 7158SOL    HW133533   2.093   2.627   2.724
 7158SOL    HW233534   1.946   2.695   2.706
 7159SOL     OW33535   1.883   2.761   3.667
 7159SOL    HW133536   1.783   2.758   3.659
 7159SOL    HW233537   1.911   2.708   3.747
 7160SOL     OW33538   2.834   3.604   3.291
 7160SOL    HW133539   2.795   3.545   3.361
 7160SOL    HW233540   2.763   3.666   3.257
 7161SOL     OW33541   3.036   2.985   2.849
 7161SOL    HW133542   3.075   3.076   2.862
 7161SOL    HW233543   3.028   2.939   2.937
 7162SOL     OW33544   2.381   2.730   2.225
 7162SOL    HW133545   2.346   2.816   2.188
 7162SOL    HW233546   2.307   2.679   2.268
 7163SOL     OW33547   3.417   2.787   2.835
 7163SOL    HW133548   3.461   2.866   2.792
 7163SOL    HW233549   3.386   2.812   2.926
 7164SOL     OW33550   3.212   2.137   3.234
 7164SOL    HW133551   3.281   2.108   3.301
 7164SOL    HW233552   3.149   2.062   3.216
 7165SOL     OW33553   1.881   1.917   2.350
 7165SOL    HW133554   1.790   1.876   2.348
 7165SOL    HW233555   1.875   2.013   2.323
 7166SOL     OW33556   3.190   1.978   3.585
 7166SOL    HW133557   3.222   1.988   3.679
 7166SOL    HW233558   3.115   2.041   3.568
 7167SOL     OW33559   2.300   3.414   3.474
 7167SOL    HW133560   2.244   3.473   3.531
 7167SOL    HW233561   2.344   3.468   3.402
 7168SOL     OW33562   3.615   3.286   3.388
 7168SOL    HW133563   3.659   3.368   3.424
 7168SOL    HW233564   3.528   3.272   3.434
 7169SOL     OW33565   2.877   2.329   2.934
 7169SOL    HW133566   2.959   2.379   2.965
 7169SOL    HW233567   2.870   2.244   2.985
 7170SOL     OW33568   2.308   3.341   2.543
 7170SOL    HW133569   2.297   3.242   2.543
 7170SOL    HW233570   2.219   3.385   2.531
 7171SOL     OW33571   2.958   3.414   3.007
 7171SOL    HW133572   2.915   3.421   3.097
 7171SOL    HW233573   2.887   3.410   2.937
 7172SOL     OW33574   2.144   3.588   3.633
 7172SOL    HW133575   2.191   3.675   3.624
 7172SOL    HW233576   2.134   3.565   3.729
 7173SOL     OW33577   1.962   3.116   3.512
 7173SOL    HW133578   1.942   3.023   3.483
 7173SOL    HW233579   1.885   3.175   3.490
 7174SOL     OW33580   2.179   3.498   2.874
 7174SOL    HW133581   2.154   3.401   2.880
 7174SOL    HW233582   2.195   3.522   2.779
 7175SOL     OW33583   2.884   1.975   2.696
 7175SOL    HW133584   2.971   2.000   2.737
 7175SOL    HW233585   2.828   1.926   2.763
 7176SOL     OW33586   2.902   3.069   2.280
 7176SOL    HW133587   2.997   3.083   2.310
 7176SOL    HW233588   2.863   2.991   2.330
 7177SOL     OW33589   3.462   2.304   2.601
 7177SOL    HW133590   3.485   2.388   2.650
 7177SOL    HW233591   3.517   2.229   2.638
 7178SOL     OW33592   2.600   2.992   2.100
 7178SOL    HW133593   2.674   3.053   2.071
 7178SOL    HW233594   2.610   2.904   2.054
 7179SOL     OW33595   2.635   1.960   2.013
 7179SOL    HW133596   2.715   1.900   2.014
 7179SOL    HW233597   2.665   2.055   2.028
 7180SOL     OW33598   2.344   2.338   2.555
 7180SOL    HW133599   2.414   2.267   2.562
 7180SOL    HW233600   2.382   2.416   2.504
 7181SOL     OW33601   2.443   2.899   3.262
 7181SOL    HW133602   2.533   2.886   3.302
 7181SOL    HW233603   2.442   2.982   3.206
 7182SOL     OW33604   3.609   2.951   3.181
 7182SOL    HW133605   3.608   3.047   3.155
 7182SOL    HW233606   3.657   2.898   3.110
 7183SOL     OW33607   2.044   3.077   1.978
 7183SOL    HW133608   1.997   3.089   1.890
 7183SOL    HW233609   2.114   3.148   1.988
 7184SOL     OW33610   2.527   3.501   2.079
 7184SOL    HW133611   2.470   3.578   2.051
 7184SOL    HW233612   2.484   3.454   2.157
 7185SOL     OW33613   3.179   2.950   3.313
 7185SOL    HW133614   3.119   2.914   3.384
 7185SOL    HW233615   3.157   3.046   3.295
 7186SOL     OW33616   2.411   3.561   3.263
 7186SOL    HW133617   2.486   3.626   3.253
 7186SOL    HW233618   2.335   3.589   3.204
 7187SOL     OW33619   2.007   2.365   3.559
 7187SOL    HW133620   2.010   2.265   3.562
 7187SOL    HW233621   2.079   2.398   3.498
 7188SOL     OW33622   3.515   3.384   2.902
 7188SOL    HW133623   3.554   3.470   2.935
 7188SOL    HW233624   3.527   3.313   2.971
 7189SOL     OW33625   1.844   2.759   2.561
 7189SOL    HW133626   1.870   2.838   2.505
 7189SOL    HW233627   1.744   2.755   2.569
 7190SOL     OW33628   3.494   3.026   2.698
 7190SOL    HW133629   3.470   3.122   2.685
 7190SOL    HW233630   3.462   2.972   2.620
 7191SOL     OW33631   2.594   2.380   2.852
 7191SOL    HW133632   2.691   2.365   2.872
 7191SOL    HW233633   2.554   2.435   2.925
 7192SOL     OW33634   2.487   3.134   3.119
 7192SOL    HW133635   2.391   3.143   3.093
 7192SOL    HW233636   2.541   3.111   3.037
 7193SOL     OW33637   2.022   2.523   3.017
 7193SOL    HW133638   2.041   2.595   3.083
 7193SOL    HW233639   2.023   2.561   2.924
 7194SOL     OW33640   2.175   3.196   3.358
 7194SOL    HW133641   2.224   3.275   3.395
 7194SOL    HW233642   2.092   3.180   3.412
 7195SOL     OW33643   3.452   3.532   3.628
 7195SOL    HW133644   3.421   3.440   3.604
 7195SOL    HW233645   3.433   3.594   3.551
 7196SOL     OW33646   3.170   3.097   2.329
 7196SOL    HW133647   3.260   3.111   2.369
 7196SOL    HW233648   3.179   3.076   2.232
 7197SOL     OW33649   2.505   2.216   2.290
 7197SOL    HW133650   2.408   2.196   2.280
 7197SOL    HW233651   2.534   2.197   2.384
 7198SOL     OW33652   3.486   1.874   2.603
 7198SOL    HW133653   3.456   1.894   2.509
 7198SOL    HW233654   3.533   1.954   2.641
 7199SOL     OW33655   3.019   2.597   3.209
 7199SOL    HW133656   3.117   2.596   3.189
 7199SOL    HW233657   2.972   2.657   3.144
 7200SOL     OW33658   2.508   2.586   2.676
 7200SOL    HW133659   2.533   2.515   2.741
 7200SOL    HW233660   2.535   2.558   2.584
 7201SOL     OW33661   3.129   3.242   2.876
 7201SOL    HW133662   3.067   3.297   2.931
 7201SOL    HW233663   3.150   3.290   2.791
 7202SOL     OW33664   3.187   2.290   2.587
 7202SOL    HW133665   3.172   2.297   2.489
 7202SOL    HW233666   3.285   2.296   2.607
 7203SOL     OW33667   2.921   3.298   4.448
 7203SOL    HW133668   3.017   3.326   4.451
 7203SOL    HW233669   2.883   3.318   4.357
 7204SOL     OW33670   3.460   3.115   4.251
 7204SOL    HW133671   3.464   3.179   4.327
 7204SOL    HW233672   3.552   3.079   4.233
 7205SOL     OW33673   3.474   2.510   5.074
 7205SOL    HW133674   3.407   2.462   5.130
 7205SOL    HW233675   3.531   2.568   5.131
 7206SOL     OW33676   2.241   2.118   3.706
 7206SOL    HW133677   2.163   2.104   3.645
 7206SOL    HW233678   2.308   2.177   3.662
 7207SOL     OW33679   3.183   3.385   4.502
 7207SOL    HW133680   3.195   3.482   4.522
 7207SOL    HW233681   3.272   3.344   4.480
 7208SOL     OW33682   3.031   1.942   5.034
 7208SOL    HW133683   2.949   1.895   5.069
 7208SOL    HW233684   3.083   1.879   4.976
 7209SOL     OW33685   2.822   2.733   5.443
 7209SOL    HW133686   2.781   2.730   5.352
 7209SOL    HW233687   2.750   2.748   5.511
 7210SOL     OW33688   2.408   3.322   4.111
 7210SOL    HW133689   2.365   3.351   4.196
 7210SOL    HW233690   2.482   3.258   4.131
 7211SOL     OW33691   2.397   1.912   3.805
 7211SOL    HW133692   2.493   1.937   3.793
 7211SOL    HW233693   2.338   1.985   3.770
 7212SOL     OW33694   3.440   2.900   5.239
 7212SOL    HW133695   3.344   2.921   5.219
 7212SOL    HW233696   3.497   2.931   5.163
 7213SOL     OW33697   3.278   2.904   4.921
 7213SOL    HW133698   3.234   2.907   5.011
 7213SOL    HW233699   3.311   2.995   4.897
 7214SOL     OW33700   2.833   3.209   5.162
 7214SOL    HW133701   2.748   3.261   5.156
 7214SOL    HW233702   2.824   3.126   5.105
 7215SOL     OW33703   2.311   3.064   4.387
 7215SOL    HW133704   2.263   3.020   4.463
 7215SOL    HW233705   2.407   3.038   4.389
 7216SOL     OW33706   2.598   2.467   4.237
 7216SOL    HW133707   2.619   2.542   4.174
 7216SOL    HW233708   2.569   2.387   4.184
 7217SOL     OW33709   3.140   2.384   5.459
 7217SOL    HW133710   3.232   2.360   5.489
 7217SOL    HW233711   3.083   2.302   5.458
 7218SOL     OW33712   2.285   3.217   3.876
 7218SOL    HW133713   2.340   3.233   3.794
 7218SOL    HW233714   2.325   3.266   3.953
 7219SOL     OW33715   2.415   2.155   4.688
 7219SOL    HW133716   2.480   2.231   4.682
 7219SOL    HW233717   2.451   2.076   4.639
 7220SOL     OW33718   2.170   2.620   4.201
 7220SOL    HW133719   2.202   2.649   4.291
 7220SOL    HW233720   2.071   2.607   4.203
 7221SOL     OW33721   2.636   3.553   4.313
 7221SOL    HW133722   2.697   3.484   4.274
 7221SOL    HW233723   2.620   3.625   4.245
 7222SOL     OW33724   3.617   3.429   4.097
 7222SOL    HW133725   3.694   3.366   4.107
 7222SOL    HW233726   3.634   3.490   4.020
 7223SOL     OW33727   3.499   2.173   4.817
 7223SOL    HW133728   3.542   2.264   4.826
 7223SOL    HW233729   3.400   2.183   4.814
 7224SOL     OW33730   2.910   2.226   4.034
 7224SOL    HW133731   2.962   2.311   4.040
 7224SOL    HW233732   2.918   2.175   4.120
 7225SOL     OW33733   2.038   2.860   5.318
 7225SOL    HW133734   2.131   2.897   5.327
 7225SOL    HW233735   2.012   2.814   5.403
 7226SOL     OW33736   2.323   2.575   3.819
 7226SOL    HW133737   2.306   2.649   3.754
 7226SOL    HW233738   2.359   2.614   3.904
 7227SOL     OW33739   2.508   3.446   4.524
 7227SOL    HW133740   2.560   3.494   4.454
 7227SOL    HW233741   2.429   3.403   4.483
 7228SOL     OW33742   2.830   2.467   5.234
 7228SOL    HW133743   2.872   2.395   5.288
 7228SOL    HW233744   2.902   2.525   5.194
 7229SOL     OW33745   3.450   3.283   4.491
 7229SOL    HW133746   3.460   3.306   4.588
 7229SOL    HW233747   3.497   3.351   4.435
 7230SOL     OW33748   2.133   3.125   4.177
 7230SOL    HW133749   2.198   3.101   4.248
 7230SOL    HW233750   2.153   3.073   4.094
 7231SOL     OW33751   3.031   2.122   3.814
 7231SOL    HW133752   3.114   2.073   3.842
 7231SOL    HW233753   2.983   2.156   3.895
 7232SOL     OW33754   2.263   2.407   4.869
 7232SOL    HW133755   2.257   2.309   4.889
 7232SOL    HW233756   2.172   2.448   4.877
 7233SOL     OW33757   3.254   2.632   4.965
 7233SOL    HW133758   3.268   2.729   4.945
 7233SOL    HW233759   3.339   2.591   4.998
 7234SOL     OW33760   2.241   2.159   4.144
 7234SOL    HW133761   2.185   2.186   4.222
 7234SOL    HW233762   2.188   2.172   4.060
 7235SOL     OW33763   3.375   3.589   5.009
 7235SOL    HW133764   3.297   3.593   4.947
 7235SOL    HW233765   3.460   3.583   4.957
 7236SOL     OW33766   3.604   2.423   4.853
 7236SOL    HW133767   3.699   2.452   4.861
 7236SOL    HW233768   3.553   2.453   4.934
 7237SOL     OW33769   3.623   3.582   4.870
 7237SOL    HW133770   3.660   3.623   4.953
 7237SOL    HW233771   3.698   3.560   4.807
 7238SOL     OW33772   2.829   2.333   4.327
 7238SOL    HW133773   2.876   2.384   4.399
 7238SOL    HW233774   2.749   2.385   4.297
 7239SOL     OW33775   3.086   2.812   3.850
 7239SOL    HW133776   3.109   2.771   3.938
 7239SOL    HW233777   3.048   2.742   3.789
 7240SOL     OW33778   2.965   2.171   5.461
 7240SOL    HW133779   2.990   2.145   5.555
 7240SOL    HW233780   2.873   2.139   5.441
 7241SOL     OW33781   3.613   2.544   4.067
 7241SOL    HW133782   3.562   2.459   4.075
 7241SOL    HW233783   3.677   2.552   4.143
 7242SOL     OW33784   2.855   3.608   3.832
 7242SOL    HW133785   2.890   3.554   3.756
 7242SOL    HW233786   2.878   3.563   3.919
 7243SOL     OW33787   2.646   1.917   5.416
 7243SOL    HW133788   2.657   1.821   5.390
 7243SOL    HW233789   2.645   1.925   5.516
 7244SOL     OW33790   3.526   2.528   4.611
 7244SOL    HW133791   3.482   2.617   4.623
 7244SOL    HW233792   3.545   2.488   4.700
 7245SOL     OW33793   2.954   3.178   5.431
 7245SOL    HW133794   2.996   3.087   5.425
 7245SOL    HW233795   2.901   3.195   5.349
 7246SOL     OW33796   2.604   2.993   5.419
 7246SOL    HW133797   2.550   3.077   5.423
 7246SOL    HW233798   2.624   2.962   5.512
 7247SOL     OW33799   3.159   1.839   4.619
 7247SOL    HW133800   3.106   1.923   4.624
 7247SOL    HW233801   3.245   1.856   4.570
 7248SOL     OW33802   3.565   2.064   5.487
 7248SOL    HW133803   3.538   2.091   5.579
 7248SOL    HW233804   3.544   1.967   5.472
 7249SOL     OW33805   1.910   2.575   4.274
 7249SOL    HW133806   1.938   2.512   4.347
 7249SOL    HW233807   1.872   2.658   4.315
 7250SOL     OW33808   2.187   2.063   4.529
 7250SOL    HW133809   2.260   2.102   4.585
 7250SOL    HW233810   2.208   1.968   4.506
 7251SOL     OW33811   2.247   2.116   4.902
 7251SOL    HW133812   2.234   2.018   4.920
 7251SOL    HW233813   2.309   2.127   4.824
 7252SOL     OW33814   2.881   2.661   4.630
 7252SOL    HW133815   2.792   2.674   4.585
 7252SOL    HW233816   2.929   2.585   4.588
 7253SOL     OW33817   2.053   3.385   4.105
 7253SOL    HW133818   2.082   3.291   4.126
 7253SOL    HW233819   2.105   3.420   4.028
 7254SOL     OW33820   3.303   3.187   4.931
 7254SOL    HW133821   3.259   3.216   4.847
 7254SOL    HW233822   3.240   3.197   5.008
 7255SOL     OW33823   2.058   3.478   4.374
 7255SOL    HW133824   1.961   3.487   4.398
 7255SOL    HW233825   2.067   3.467   4.275
 7256SOL     OW33826   3.569   3.232   4.980
 7256SOL    HW133827   3.592   3.272   5.069
 7256SOL    HW233828   3.470   3.218   4.975
 7257SOL     OW33829   2.324   2.813   3.685
 7257SOL    HW133830   2.291   2.861   3.603
 7257SOL    HW233831   2.318   2.874   3.764
 7258SOL     OW33832   2.793   2.986   4.997
 7258SOL    HW133833   2.846   2.907   4.967
 7258SOL    HW233834   2.730   3.014   4.924
 7259SOL     OW33835   1.935   2.636   3.904
 7259SOL    HW133836   2.007   2.568   3.913
 7259SOL    HW233837   1.853   2.604   3.953
 7260SOL     OW33838   3.435   2.754   4.101
 7260SOL    HW133839   3.498   2.677   4.090
 7260SOL    HW233840   3.453   2.824   4.032
 7261SOL     OW33841   2.703   3.685   4.679
 7261SOL    HW133842   2.747   3.599   4.653
 7261SOL    HW233843   2.625   3.665   4.739
 7262SOL     OW33844   2.590   2.739   3.706
 7262SOL    HW133845   2.609   2.656   3.758
 7262SOL    HW233846   2.491   2.752   3.699
 7263SOL     OW33847   3.219   2.265   4.127
 7263SOL    HW133848   3.170   2.335   4.074
 7263SOL    HW233849   3.316   2.287   4.129
 7264SOL     OW33850   2.140   2.466   5.177
 7264SOL    HW133851   2.118   2.381   5.128
 7264SOL    HW233852   2.113   2.457   5.273
 7265SOL     OW33853   2.058   2.216   5.074
 7265SOL    HW133854   2.127   2.177   5.013
 7265SOL    HW233855   1.967   2.190   5.043
 7266SOL     OW33856   2.878   2.745   4.892
 7266SOL    HW133857   2.888   2.722   4.795
 7266SOL    HW233858   2.801   2.694   4.930
 7267SOL     OW33859   3.497   2.298   4.145
 7267SOL    HW133860   3.581   2.244   4.141
 7267SOL    HW233861   3.476   2.319   4.241
 7268SOL     OW33862   2.766   3.419   4.634
 7268SOL    HW133863   2.824   3.376   4.565
 7268SOL    HW233864   2.670   3.413   4.606
 7269SOL     OW33865   2.668   2.246   3.921
 7269SOL    HW133866   2.601   2.234   3.994
 7269SOL    HW233867   2.760   2.238   3.958
 7270SOL     OW33868   2.823   3.143   3.847
 7270SOL    HW133869   2.878   3.123   3.928
 7270SOL    HW233870   2.881   3.137   3.766
 7271SOL     OW33871   3.573   3.481   4.359
 7271SOL    HW133872   3.530   3.569   4.381
 7271SOL    HW233873   3.578   3.470   4.260
 7272SOL     OW33874   3.034   2.750   4.301
 7272SOL    HW133875   3.075   2.774   4.390
 7272SOL    HW233876   2.945   2.794   4.293
 7273SOL     OW33877   2.685   3.480   5.327
 7273SOL    HW133878   2.636   3.424   5.260
 7273SOL    HW233879   2.693   3.430   5.413
 7274SOL     OW33880   3.177   2.818   4.530
 7274SOL    HW133881   3.253   2.788   4.588
 7274SOL    HW233882   3.118   2.880   4.581
 7275SOL     OW33883   2.175   2.945   4.596
 7275SOL    HW133884   2.084   2.988   4.587
 7275SOL    HW233885   2.192   2.926   4.693
 7276SOL     OW33886   2.781   2.858   4.237
 7276SOL    HW133887   2.741   2.789   4.178
 7276SOL    HW233888   2.714   2.887   4.306
 7277SOL     OW33889   3.111   3.222   5.126
 7277SOL    HW133890   3.152   3.306   5.162
 7277SOL    HW233891   3.012   3.225   5.138
 7278SOL     OW33892   1.887   2.162   4.125
 7278SOL    HW133893   1.947   2.172   4.046
 7278SOL    HW233894   1.941   2.173   4.209
 7279SOL     OW33895   3.458   3.667   3.871
 7279SOL    HW133896   3.555   3.657   3.890
 7279SOL    HW233897   3.434   3.611   3.791
 7280SOL     OW33898   2.685   2.617   5.045
 7280SOL    HW133899   2.669   2.696   5.105
 7280SOL    HW233900   2.731   2.545   5.096
 7281SOL     OW33901   1.918   3.679   5.106
 7281SOL    HW133902   1.870   3.766   5.117
 7281SOL    HW233903   1.908   3.626   5.190
 7282SOL     OW33904   2.647   2.682   4.064
 7282SOL    HW133905   2.548   2.698   4.058
 7282SOL    HW233906   2.676   2.627   3.986
 7283SOL     OW33907   2.245   2.464   4.597
 7283SOL    HW133908   2.308   2.416   4.536
 7283SOL    HW233909   2.267   2.439   4.692
 7284SOL     OW33910   2.160   3.598   3.918
 7284SOL    HW133911   2.245   3.637   3.882
 7284SOL    HW233912   2.149   3.624   4.014
 7285SOL     OW33913   3.159   3.591   4.837
 7285SOL    HW133914   3.190   3.609   4.744
 7285SOL    HW233915   3.083   3.527   4.836
 7286SOL     OW33916   1.908   3.045   4.624
 7286SOL    HW133917   1.822   3.049   4.574
 7286SOL    HW233918   1.901   2.977   4.697
 7287SOL     OW33919   2.627   1.883   4.130
 7287SOL    HW133920   2.606   1.819   4.056
 7287SOL    HW233921   2.609   1.977   4.099
 7288SOL     OW33922   1.872   3.012   4.208
 7288SOL    HW133923   1.951   3.071   4.224
 7288SOL    HW233924   1.880   2.970   4.118
 7289SOL     OW33925   3.423   2.150   5.260
 7289SOL    HW133926   3.387   2.243   5.257
 7289SOL    HW233927   3.471   2.135   5.347
 7290SOL     OW33928   3.077   2.108   4.624
 7290SOL    HW133929   3.109   2.153   4.541
 7290SOL    HW233930   3.131   2.138   4.702
 7291SOL     OW33931   3.272   1.983   3.872
 7291SOL    HW133932   3.344   1.915   3.859
 7291SOL    HW233933   3.228   1.969   3.961
 7292SOL     OW33934   3.438   1.862   5.272
 7292SOL    HW133935   3.424   1.820   5.183
 7292SOL    HW233936   3.407   1.957   5.269
 7293SOL     OW33937   2.586   2.135   4.395
 7293SOL    HW133938   2.541   2.055   4.433
 7293SOL    HW233939   2.682   2.136   4.425
 7294SOL     OW33940   3.101   2.468   4.810
 7294SOL    HW133941   3.081   2.517   4.725
 7294SOL    HW233942   3.153   2.528   4.872
 7295SOL     OW33943   3.394   1.891   4.205
 7295SOL    HW133944   3.417   1.810   4.153
 7295SOL    HW233945   3.305   1.926   4.175
 7296SOL     OW33946   2.453   3.231   5.449
 7296SOL    HW133947   2.404   3.301   5.397
 7296SOL    HW233948   2.538   3.270   5.486
 7297SOL     OW33949   2.290   2.962   5.353
 7297SOL    HW133950   2.335   2.932   5.269
 7297SOL    HW233951   2.312   3.058   5.370
 7298SOL     OW33952   1.965   3.244   4.808
 7298SOL    HW133953   1.952   3.185   4.729
 7298SOL    HW233954   1.886   3.238   4.868
 7299SOL     OW33955   2.979   2.422   4.541
 7299SOL    HW133956   3.054   2.372   4.498
 7299SOL    HW233957   2.938   2.365   4.612
 7300SOL     OW33958   3.614   2.469   5.416
 7300SOL    HW133959   3.603   2.544   5.351
 7300SOL    HW233960   3.712   2.450   5.428
 7301SOL     OW33961   3.223   2.223   4.831
 7301SOL    HW133962   3.187   2.315   4.819
 7301SOL    HW233963   3.211   2.195   4.926
 7302SOL     OW33964   3.401   2.328   5.523
 7302SOL    HW133965   3.476   2.379   5.482
 7302SOL    HW233966   3.435   2.275   5.601
 7303SOL     OW33967   3.169   2.689   4.080
 7303SOL    HW133968   3.118   2.711   4.162
 7303SOL    HW233969   3.265   2.712   4.092
 7304SOL     OW33970   3.408   2.818   4.368
 7304SOL    HW133971   3.411   2.803   4.269
 7304SOL    HW233972   3.314   2.814   4.400
 7305SOL     OW33973   3.612   2.681   5.233
 7305SOL    HW133974   3.546   2.757   5.229
 7305SOL    HW233975   3.704   2.718   5.248
 7306SOL     OW33976   3.450   2.200   3.867
 7306SOL    HW133977   3.468   2.234   3.959
 7306SOL    HW233978   3.383   2.125   3.872
 7307SOL     OW33979   2.566   3.338   5.122
 7307SOL    HW133980   2.503   3.413   5.103
 7307SOL    HW233981   2.535   3.255   5.075
 7308SOL     OW33982   2.054   2.138   5.343
 7308SOL    HW133983   2.044   2.154   5.244
 7308SOL    HW233984   1.966   2.110   5.381
 7309SOL     OW33985   1.893   3.507   5.324
 7309SOL    HW133986   1.972   3.501   5.385
 7309SOL    HW233987   1.809   3.509   5.378
 7310SOL     OW33988   2.046   2.200   4.347
 7310SOL    HW133989   2.023   2.287   4.391
 7310SOL    HW233990   2.099   2.144   4.410
 7311SOL     OW33991   3.235   3.449   5.209
 7311SOL    HW133992   3.167   3.512   5.247
 7311SOL    HW233993   3.288   3.496   5.138
 7312SOL     OW33994   2.135   2.453   3.970
 7312SOL    HW133995   2.203   2.483   3.903
 7312SOL    HW233996   2.156   2.494   4.059
 7313SOL     OW33997   3.601   2.079   5.060
 7313SOL    HW133998   3.534   2.107   5.128
 7313SOL    HW233999   3.567   2.100   4.968
 7314SOL     OW34000   2.277   3.667   4.427
 7314SOL    HW134001   2.196   3.609   4.419
 7314SOL    HW234002   2.329   3.664   4.341
 7315SOL     OW34003   2.202   3.160   4.932
 7315SOL    HW134004   2.200   3.187   5.028
 7315SOL    HW234005   2.124   3.200   4.884
 7316SOL     OW34006   3.014   3.441   5.526
 7316SOL    HW134007   2.993   3.347   5.499
 7316SOL    HW234008   3.024   3.498   5.444
 7317SOL     OW34009   2.602   3.137   4.180
 7317SOL    HW134010   2.618   3.077   4.102
 7317SOL    HW234011   2.603   3.082   4.264
 7318SOL     OW34012   2.205   2.700   4.464
 7318SOL    HW134013   2.220   2.786   4.511
 7318SOL    HW234014   2.240   2.624   4.519
 7319SOL     OW34015   2.077   2.190   3.919
 7319SOL    HW134016   2.136   2.161   3.844
 7319SOL    HW234017   2.083   2.289   3.929
 7320SOL     OW34018   1.994   2.424   4.492
 7320SOL    HW134019   1.931   2.471   4.555
 7320SOL    HW234020   2.087   2.432   4.527
 7321SOL     OW34021   2.362   2.960   3.922
 7321SOL    HW134022   2.461   2.968   3.933
 7321SOL    HW234023   2.322   3.050   3.906
 7322SOL     OW34024   2.970   2.545   3.741
 7322SOL    HW134025   2.922   2.610   3.682
 7322SOL    HW234026   3.025   2.482   3.685
 7323SOL     OW34027   2.705   2.519   3.850
 7323SOL    HW134028   2.799   2.523   3.816
 7323SOL    HW234029   2.678   2.423   3.860
 7324SOL     OW34030   3.155   2.002   4.125
 7324SOL    HW134031   3.068   1.993   4.172
 7324SOL    HW234032   3.183   2.098   4.124
 7325SOL     OW34033   3.277   2.386   5.214
 7325SOL    HW134034   3.226   2.415   5.294
 7325SOL    HW234035   3.222   2.322   5.160
 7326SOL     OW34036   1.940   1.933   3.869
 7326SOL    HW134037   2.020   1.875   3.884
 7326SOL    HW234038   1.966   2.029   3.877
 7327SOL     OW34039   2.173   2.894   4.872
 7327SOL    HW134040   2.179   2.833   4.951
 7327SOL    HW234041   2.193   2.988   4.900
 7328SOL     OW34042   3.506   2.910   3.891
 7328SOL    HW134043   3.602   2.935   3.903
 7328SOL    HW234044   3.489   2.890   3.794
 7329SOL     OW34045   2.492   2.574   4.848
 7329SOL    HW134046   2.549   2.588   4.929
 7329SOL    HW234047   2.410   2.523   4.874
 7330SOL     OW34048   2.677   2.844   5.205
 7330SOL    HW134049   2.727   2.901   5.140
 7330SOL    HW234050   2.655   2.899   5.286
 7331SOL     OW34051   3.029   2.909   5.396
 7331SOL    HW134052   2.949   2.851   5.411
 7331SOL    HW234053   3.111   2.860   5.424
 7332SOL     OW34054   2.926   2.088   4.277
 7332SOL    HW134055   2.893   2.180   4.298
 7332SOL    HW234056   2.892   2.024   4.346
 7333SOL     OW34057   3.035   3.607   5.309
 7333SOL    HW134058   2.959   3.612   5.245
 7333SOL    HW234059   3.061   3.699   5.338
 7334SOL     OW34060   2.475   1.932   4.536
 7334SOL    HW134061   2.408   1.865   4.503
 7334SOL    HW234062   2.553   1.884   4.576
 7335SOL     OW34063   2.153   3.663   4.958
 7335SOL    HW134064   2.122   3.611   4.878
 7335SOL    HW234065   2.076   3.674   5.021
 7336SOL     OW34066   2.813   3.073   4.565
 7336SOL    HW134067   2.848   3.155   4.518
 7336SOL    HW234068   2.889   3.025   4.609
 7337SOL     OW34069   2.542   2.774   4.649
 7337SOL    HW134070   2.575   2.708   4.582
 7337SOL    HW234071   2.509   2.726   4.730
 7338SOL     OW34072   1.912   2.846   4.810
 7338SOL    HW134073   2.003   2.863   4.846
 7338SOL    HW234074   1.917   2.782   4.734
 7339SOL     OW34075   2.209   1.885   4.167
 7339SOL    HW134076   2.240   1.979   4.156
 7339SOL    HW234077   2.111   1.883   4.184
 7340SOL     OW34078   2.577   2.511   5.344
 7340SOL    HW134079   2.515   2.541   5.271
 7340SOL    HW234080   2.667   2.493   5.306
 7341SOL     OW34081   1.939   2.911   3.958
 7341SOL    HW134082   1.955   2.814   3.938
 7341SOL    HW234083   1.986   2.967   3.890
 7342SOL     OW34084   3.533   2.117   4.543
 7342SOL    HW134085   3.540   2.122   4.643
 7342SOL    HW234086   3.610   2.066   4.507
 7343SOL     OW34087   2.630   3.014   4.769
 7343SOL    HW134088   2.595   2.928   4.733
 7343SOL    HW234089   2.693   3.054   4.702
 7344SOL     OW34090   3.068   2.453   3.990
 7344SOL    HW134091   3.104   2.536   4.032
 7344SOL    HW234092   3.032   2.474   3.899
 7345SOL     OW34093   3.400   3.325   5.390
 7345SOL    HW134094   3.365   3.240   5.428
 7345SOL    HW234095   3.333   3.364   5.327
 7346SOL     OW34096   2.093   2.715   5.078
 7346SOL    HW134097   2.110   2.622   5.113
 7346SOL    HW234098   2.068   2.775   5.154
 7347SOL     OW34099   2.669   3.343   3.731
 7347SOL    HW134100   2.622   3.399   3.800
 7347SOL    HW234101   2.727   3.276   3.777
 7348SOL     OW34102   2.472   3.567   4.772
 7348SOL    HW134103   2.476   3.519   4.684
 7348SOL    HW234104   2.392   3.536   4.824
 7349SOL     OW34105   2.597   2.969   4.428
 7349SOL    HW134106   2.674   3.016   4.471
 7349SOL    HW234107   2.559   2.901   4.491
 7350SOL     OW34108   2.792   3.346   4.210
 7350SOL    HW134109   2.856   3.359   4.135
 7350SOL    HW234110   2.731   3.269   4.189
 7351SOL     OW34111   1.955   2.695   4.591
 7351SOL    HW134112   2.044   2.691   4.545
 7351SOL    HW234113   1.888   2.734   4.528
 7352SOL     OW34114   1.948   2.741   5.547
 7352SOL    HW134115   1.861   2.713   5.506
 7352SOL    HW234116   1.970   2.680   5.623
 7353SOL     OW34117   2.815   3.632   5.138
 7353SOL    HW134118   2.773   3.572   5.206
 7353SOL    HW234119   2.746   3.696   5.103
 7354SOL     OW34120   3.040   2.988   4.703
 7354SOL    HW134121   3.073   3.081   4.714
 7354SOL    HW234122   3.053   2.938   4.789
 7355SOL     OW34123   2.429   2.252   5.492
 7355SOL    HW134124   2.495   2.242   5.417
 7355SOL    HW234125   2.425   2.348   5.519
 7356SOL     OW34126   2.378   2.716   4.048
 7356SOL    HW134127   2.358   2.807   4.012
 7356SOL    HW234128   2.303   2.686   4.107
 7357SOL     OW34129   3.405   2.786   4.691
 7357SOL    HW134130   3.447   2.864   4.645
 7357SOL    HW234131   3.369   2.815   4.780
 7358SOL     OW34132   3.187   2.153   5.094
 7358SOL    HW134133   3.258   2.121   5.157
 7358SOL    HW234134   3.121   2.079   5.077
 7359SOL     OW34135   1.942   1.889   4.192
 7359SOL    HW134136   1.893   1.808   4.161
 7359SOL    HW234137   1.891   1.971   4.165
 7360SOL     OW34138   3.162   1.974   5.418
 7360SOL    HW134139   3.200   1.955   5.509
 7360SOL    HW234140   3.100   2.052   5.423
 7361SOL     OW34141   2.309   3.434   5.330
 7361SOL    HW134142   2.241   3.479   5.388
 7361SOL    HW234143   2.337   3.497   5.257
 7362SOL     OW34144   3.627   3.324   5.235
 7362SOL    HW134145   3.678   3.408   5.254
 7362SOL    HW234146   3.545   3.321   5.292
 7363SOL     OW34147   2.869   2.314   4.777
 7363SOL    HW134148   2.942   2.372   4.814
 7363SOL    HW234149   2.887   2.219   4.801
 7364SOL     OW34150   2.300   3.340   4.376
 7364SOL    HW134151   2.295   3.241   4.384
 7364SOL    HW234152   2.208   3.379   4.385
 7365SOL     OW34153   2.938   3.424   4.846
 7365SOL    HW134154   2.890   3.433   4.933
 7365SOL    HW234155   2.871   3.424   4.771
 7366SOL     OW34156   2.107   3.519   5.507
 7366SOL    HW134157   2.068   3.608   5.532
 7366SOL    HW234158   2.140   3.473   5.589
 7367SOL     OW34159   1.988   3.137   5.340
 7367SOL    HW134160   1.986   3.038   5.328
 7367SOL    HW234161   1.909   3.178   5.295
 7368SOL     OW34162   2.039   3.507   4.751
 7368SOL    HW134163   2.019   3.411   4.772
 7368SOL    HW234164   2.057   3.517   4.654
 7369SOL     OW34165   2.821   2.031   4.537
 7369SOL    HW134166   2.909   2.057   4.577
 7369SOL    HW234167   2.777   1.963   4.596
 7370SOL     OW34168   2.927   3.060   4.094
 7370SOL    HW134169   3.019   3.075   4.130
 7370SOL    HW234170   2.881   2.988   4.147
 7371SOL     OW34171   3.443   2.340   4.416
 7371SOL    HW134172   3.466   2.419   4.474
 7371SOL    HW234173   3.477   2.256   4.459
 7372SOL     OW34174   2.632   2.976   3.955
 7372SOL    HW134175   2.696   3.037   3.908
 7372SOL    HW234176   2.674   2.885   3.964
 7373SOL     OW34177   2.652   2.003   3.779
 7373SOL    HW134178   2.726   1.940   3.803
 7373SOL    HW234179   2.668   2.092   3.822
 7374SOL     OW34180   2.412   2.351   4.419
 7374SOL    HW134181   2.465   2.267   4.426
 7374SOL    HW234182   2.453   2.411   4.351
 7375SOL     OW34183   2.417   2.888   5.122
 7375SOL    HW134184   2.508   2.858   5.153
 7375SOL    HW234185   2.427   2.970   5.066
 7376SOL     OW34186   3.598   2.964   5.031
 7376SOL    HW134187   3.597   3.061   5.009
 7376SOL    HW234188   3.648   2.914   4.960
 7377SOL     OW34189   2.063   3.074   3.779
 7377SOL    HW134190   2.032   3.095   3.686
 7377SOL    HW234191   2.135   3.137   3.805
 7378SOL     OW34192   2.506   3.478   3.902
 7378SOL    HW134193   2.452   3.559   3.881
 7378SOL    HW234194   2.474   3.436   3.987
 7379SOL     OW34195   3.177   2.961   5.168
 7379SOL    HW134196   3.120   2.925   5.242
 7379SOL    HW234197   3.156   3.058   5.153
 7380SOL     OW34198   2.385   3.572   5.097
 7380SOL    HW134199   2.454   3.644   5.089
 7380SOL    HW234200   2.301   3.601   5.050
 7381SOL     OW34201   2.040   2.397   5.424
 7381SOL    HW134202   2.048   2.300   5.399
 7381SOL    HW234203   2.088   2.413   5.510
 7382SOL     OW34204   3.495   3.367   4.742
 7382SOL    HW134205   3.524   3.460   4.768
 7382SOL    HW234206   3.513   3.305   4.819
 7383SOL     OW34207   1.807   2.803   4.383
 7383SOL    HW134208   1.840   2.880   4.328
 7383SOL    HW234209   1.708   2.805   4.388
 7384SOL     OW34210   2.390   2.598   5.164
 7384SOL    HW134211   2.304   2.547   5.164
 7384SOL    HW234212   2.373   2.693   5.137
 7385SOL     OW34213   3.490   3.011   4.547
 7385SOL    HW134214   3.465   3.107   4.531
 7385SOL    HW234215   3.461   2.956   4.469
 7386SOL     OW34216   2.607   2.372   4.694
 7386SOL    HW134217   2.699   2.350   4.725
 7386SOL    HW234218   2.569   2.445   4.752
 7387SOL     OW34219   2.472   3.119   4.970
 7387SOL    HW134220   2.379   3.142   4.942
 7387SOL    HW234221   2.525   3.090   4.891
 7388SOL     OW34222   2.022   2.555   4.854
 7388SOL    HW134223   2.039   2.622   4.927
 7388SOL    HW234224   2.018   2.602   4.766
 7389SOL     OW34225   2.198   3.227   5.191
 7389SOL    HW134226   2.243   3.304   5.236
 7389SOL    HW234227   2.122   3.195   5.247
 7390SOL     OW34228   3.497   3.576   5.474
 7390SOL    HW134229   3.464   3.482   5.468
 7390SOL    HW234230   3.466   3.628   5.395
 7391SOL     OW34231   3.197   3.086   4.163
 7391SOL    HW134232   3.289   3.091   4.202
 7391SOL    HW234233   3.204   3.066   4.065
 7392SOL     OW34234   2.512   2.213   4.144
 7392SOL    HW134235   2.413   2.195   4.137
 7392SOL    HW234236   2.546   2.179   4.231
 7393SOL     OW34237   3.372   1.903   4.477
 7393SOL    HW134238   3.379   1.889   4.378
 7393SOL    HW234239   3.425   1.984   4.503
 7394SOL     OW34240   3.010   2.622   5.105
 7394SOL    HW134241   3.108   2.615   5.087
 7394SOL    HW234242   2.967   2.674   5.031
 7395SOL     OW34243   2.635   2.572   4.495
 7395SOL    HW134244   2.623   2.493   4.555
 7395SOL    HW234245   2.623   2.543   4.399
 7396SOL     OW34246   3.121   3.249   4.733
 7396SOL    HW134247   3.054   3.305   4.782
 7396SOL    HW234248   3.144   3.292   4.646
 7397SOL     OW34249   3.174   2.270   4.417
 7397SOL    HW134250   3.154   2.254   4.320
 7397SOL    HW234251   3.269   2.300   4.427
 7398SOL     OW34252   2.935   3.313   6.287
 7398SOL    HW134253   3.031   3.340   6.287
 7398SOL    HW234254   2.894   3.337   6.199
 7399SOL     OW34255   3.460   3.121   6.094
 7399SOL    HW134256   3.466   3.185   6.171
 7399SOL    HW234257   3.551   3.084   6.074
 7400SOL     OW34258   3.486   2.503   6.926
 7400SOL    HW134259   3.415   2.453   6.975
 7400SOL    HW234260   3.537   2.560   6.990
 7401SOL     OW34261   2.244   2.060   5.514
 7401SOL    HW134262   2.172   2.086   5.450
 7401SOL    HW234263   2.318   2.127   5.511
 7402SOL     OW34264   3.198   3.394   6.339
 7402SOL    HW134265   3.211   3.490   6.364
 7402SOL    HW234266   3.287   3.352   6.319
 7403SOL     OW34267   3.071   1.894   6.861
 7403SOL    HW134268   2.988   1.854   6.901
 7403SOL    HW234269   3.109   1.832   6.793
 7404SOL     OW34270   2.846   2.724   7.298
 7404SOL    HW134271   2.840   2.663   7.219
 7404SOL    HW234272   2.754   2.740   7.335
 7405SOL     OW34273   2.432   3.344   5.943
 7405SOL    HW134274   2.385   3.374   6.026
 7405SOL    HW234275   2.502   3.276   5.966
 7406SOL     OW34276   2.396   1.884   5.659
 7406SOL    HW134277   2.488   1.919   5.673
 7406SOL    HW234278   2.345   1.948   5.600
 7407SOL     OW34279   3.448   2.909   7.087
 7407SOL    HW134280   3.353   2.930   7.064
 7407SOL    HW234281   3.507   2.934   7.011
 7408SOL     OW34282   3.291   2.906   6.769
 7408SOL    HW134283   3.245   2.906   6.858
 7408SOL    HW234284   3.322   2.999   6.747
 7409SOL     OW34285   2.836   3.214   6.996
 7409SOL    HW134286   2.750   3.266   6.996
 7409SOL    HW234287   2.825   3.132   6.940
 7410SOL     OW34288   2.337   3.084   6.246
 7410SOL    HW134289   2.288   3.046   6.324
 7410SOL    HW234290   2.435   3.062   6.254
 7411SOL     OW34291   2.602   2.432   6.123
 7411SOL    HW134292   2.609   2.510   6.060
 7411SOL    HW234293   2.580   2.349   6.072
 7412SOL     OW34294   3.073   2.350   7.259
 7412SOL    HW134295   3.166   2.341   7.295
 7412SOL    HW234296   3.028   2.260   7.262
 7413SOL     OW34297   2.305   3.239   5.687
 7413SOL    HW134298   2.363   3.248   5.606
 7413SOL    HW234299   2.338   3.301   5.758
 7414SOL     OW34300   2.126   2.669   6.026
 7414SOL    HW134301   2.065   2.603   6.069
 7414SOL    HW234302   2.084   2.759   6.026
 7415SOL     OW34303   2.609   3.573   6.150
 7415SOL    HW134304   2.674   3.504   6.119
 7415SOL    HW234305   2.606   3.648   6.084
 7416SOL     OW34306   3.618   3.462   5.942
 7416SOL    HW134307   3.707   3.419   5.925
 7416SOL    HW234308   3.593   3.518   5.863
 7417SOL     OW34309   3.555   2.155   6.646
 7417SOL    HW134310   3.582   2.251   6.656
 7417SOL    HW234311   3.455   2.148   6.650
 7418SOL     OW34312   2.948   2.219   5.922
 7418SOL    HW134313   2.996   2.306   5.912
 7418SOL    HW234314   2.960   2.184   6.015
 7419SOL     OW34315   2.003   2.844   7.131
 7419SOL    HW134316   2.097   2.874   7.143
 7419SOL    HW234317   1.964   2.819   7.219
 7420SOL     OW34318   2.401   2.537   5.546
 7420SOL    HW134319   2.376   2.633   5.559
 7420SOL    HW234320   2.470   2.529   5.475
 7421SOL     OW34321   2.531   3.452   6.384
 7421SOL    HW134322   2.575   3.507   6.312
 7421SOL    HW234323   2.452   3.405   6.346
 7422SOL     OW34324   2.888   2.516   7.109
 7422SOL    HW134325   2.936   2.447   7.163
 7422SOL    HW234326   2.949   2.552   7.039
 7423SOL     OW34327   3.461   3.286   6.333
 7423SOL    HW134328   3.468   3.308   6.430
 7423SOL    HW234329   3.512   3.353   6.279
 7424SOL     OW34330   2.212   3.110   6.006
 7424SOL    HW134331   2.258   3.100   6.094
 7424SOL    HW234332   2.269   3.071   5.934
 7425SOL     OW34333   3.053   2.094   5.700
 7425SOL    HW134334   3.123   2.024   5.714
 7425SOL    HW234335   3.018   2.125   5.788
 7426SOL     OW34336   3.287   2.630   6.789
 7426SOL    HW134337   3.297   2.729   6.781
 7426SOL    HW234338   3.366   2.592   6.838
 7427SOL     OW34339   2.286   2.133   5.997
 7427SOL    HW134340   2.217   2.138   6.069
 7427SOL    HW234341   2.244   2.156   5.909
 7428SOL     OW34342   3.390   3.575   6.856
 7428SOL    HW134343   3.314   3.581   6.792
 7428SOL    HW234344   3.476   3.571   6.804
 7429SOL     OW34345   3.607   2.420   6.697
 7429SOL    HW134346   3.703   2.449   6.702
 7429SOL    HW234347   3.560   2.445   6.781
 7430SOL     OW34348   3.640   3.577   6.712
 7430SOL    HW134349   3.672   3.618   6.797
 7430SOL    HW234350   3.718   3.566   6.649
 7431SOL     OW34351   2.829   2.332   6.239
 7431SOL    HW134352   2.895   2.393   6.283
 7431SOL    HW234353   2.756   2.386   6.197
 7432SOL     OW34354   3.106   2.818   5.698
 7432SOL    HW134355   3.125   2.776   5.786
 7432SOL    HW234356   3.059   2.751   5.639
 7433SOL     OW34357   2.950   2.103   7.292
 7433SOL    HW134358   2.971   2.093   7.389
 7433SOL    HW234359   2.872   2.045   7.269
 7434SOL     OW34360   3.594   2.529   5.903
 7434SOL    HW134361   3.533   2.451   5.917
 7434SOL    HW234362   3.656   2.537   5.981
 7435SOL     OW34363   2.854   3.632   5.680
 7435SOL    HW134364   2.889   3.577   5.605
 7435SOL    HW234365   2.875   3.588   5.767
 7436SOL     OW34366   2.734   1.918   7.255
 7436SOL    HW134367   2.717   1.822   7.232
 7436SOL    HW234368   2.688   1.940   7.341
 7437SOL     OW34369   3.515   2.544   6.469
 7437SOL    HW134370   3.487   2.639   6.489
 7437SOL    HW234371   3.543   2.499   6.554
 7438SOL     OW34372   2.951   3.178   7.269
 7438SOL    HW134373   2.993   3.087   7.263
 7438SOL    HW234374   2.899   3.196   7.186
 7439SOL     OW34375   2.580   2.997   7.247
 7439SOL    HW134376   2.528   3.081   7.261
 7439SOL    HW234377   2.587   2.947   7.333
 7440SOL     OW34378   3.236   1.802   6.415
 7440SOL    HW134379   3.180   1.885   6.410
 7440SOL    HW234380   3.322   1.817   6.366
 7441SOL     OW34381   3.565   2.067   7.316
 7441SOL    HW134382   3.524   2.098   7.402
 7441SOL    HW234383   3.544   1.970   7.302
 7442SOL     OW34384   1.923   2.512   6.144
 7442SOL    HW134385   1.874   2.443   6.197
 7442SOL    HW234386   1.895   2.603   6.174
 7443SOL     OW34387   2.870   2.680   6.476
 7443SOL    HW134388   2.784   2.683   6.425
 7443SOL    HW234389   2.934   2.618   6.431
 7444SOL     OW34390   2.118   3.374   5.984
 7444SOL    HW134391   2.142   3.277   5.983
 7444SOL    HW234392   2.150   3.417   5.899
 7445SOL     OW34393   3.315   3.186   6.773
 7445SOL    HW134394   3.275   3.214   6.686
 7445SOL    HW234395   3.248   3.199   6.846
 7446SOL     OW34396   2.106   3.536   6.200
 7446SOL    HW134397   2.031   3.602   6.198
 7446SOL    HW234398   2.101   3.477   6.119
 7447SOL     OW34399   3.583   3.224   6.812
 7447SOL    HW134400   3.610   3.256   6.903
 7447SOL    HW234401   3.484   3.211   6.809
 7448SOL     OW34402   2.363   2.809   5.575
 7448SOL    HW134403   2.336   2.857   5.492
 7448SOL    HW234404   2.339   2.865   5.655
 7449SOL     OW34405   2.792   2.997   6.830
 7449SOL    HW134406   2.840   2.914   6.800
 7449SOL    HW234407   2.730   3.027   6.757
 7450SOL     OW34408   2.009   2.598   5.774
 7450SOL    HW134409   2.056   2.637   5.853
 7450SOL    HW234410   1.933   2.540   5.806
 7451SOL     OW34411   3.437   2.753   5.950
 7451SOL    HW134412   3.496   2.674   5.933
 7451SOL    HW234413   3.456   2.824   5.882
 7452SOL     OW34414   2.730   3.683   6.542
 7452SOL    HW134415   2.774   3.597   6.515
 7452SOL    HW234416   2.656   3.664   6.606
 7453SOL     OW34417   2.628   2.756   5.637
 7453SOL    HW134418   2.647   2.665   5.671
 7453SOL    HW234419   2.531   2.763   5.612
 7454SOL     OW34420   2.112   2.481   7.059
 7454SOL    HW134421   2.095   2.389   7.023
 7454SOL    HW234422   2.086   2.485   7.155
 7455SOL     OW34423   2.067   2.215   6.987
 7455SOL    HW134424   2.146   2.193   6.930
 7455SOL    HW234425   1.985   2.171   6.949
 7456SOL     OW34426   2.874   2.752   6.737
 7456SOL    HW134427   2.879   2.732   6.639
 7456SOL    HW234428   2.805   2.694   6.779
 7457SOL     OW34429   2.787   3.419   6.486
 7457SOL    HW134430   2.843   3.381   6.413
 7457SOL    HW234431   2.691   3.415   6.460
 7458SOL     OW34432   2.701   2.223   5.810
 7458SOL    HW134433   2.637   2.207   5.885
 7458SOL    HW234434   2.795   2.220   5.846
 7459SOL     OW34435   2.834   3.153   5.691
 7459SOL    HW134436   2.885   3.130   5.774
 7459SOL    HW234437   2.896   3.152   5.613
 7460SOL     OW34438   3.591   3.484   6.209
 7460SOL    HW134439   3.554   3.572   6.238
 7460SOL    HW234440   3.593   3.480   6.109
 7461SOL     OW34441   3.037   2.741   6.148
 7461SOL    HW134442   3.080   2.764   6.235
 7461SOL    HW234443   2.950   2.790   6.139
 7462SOL     OW34444   2.688   3.485   7.178
 7462SOL    HW134445   2.644   3.427   7.109
 7462SOL    HW234446   2.695   3.436   7.264
 7463SOL     OW34447   3.186   2.808   6.375
 7463SOL    HW134448   3.262   2.783   6.434
 7463SOL    HW234449   3.126   2.872   6.423
 7464SOL     OW34450   2.190   2.996   6.460
 7464SOL    HW134451   2.106   3.047   6.443
 7464SOL    HW234452   2.185   2.951   6.549
 7465SOL     OW34453   2.788   2.856   6.085
 7465SOL    HW134454   2.737   2.788   6.034
 7465SOL    HW234455   2.726   2.907   6.145
 7466SOL     OW34456   3.112   3.223   6.959
 7466SOL    HW134457   3.150   3.308   6.995
 7466SOL    HW234458   3.012   3.224   6.971
 7467SOL     OW34459   1.948   2.105   5.943
 7467SOL    HW134460   2.014   2.138   5.875
 7467SOL    HW234461   1.992   2.098   6.032
 7468SOL     OW34462   3.541   3.645   5.744
 7468SOL    HW134463   3.629   3.693   5.739
 7468SOL    HW234464   3.515   3.615   5.653
 7469SOL     OW34465   2.708   2.603   6.911
 7469SOL    HW134466   2.681   2.690   6.953
 7469SOL    HW234467   2.772   2.555   6.971
 7470SOL     OW34468   1.931   3.694   6.958
 7470SOL    HW134469   1.879   3.780   6.958
 7470SOL    HW234470   1.919   3.648   7.046
 7471SOL     OW34471   2.632   2.655   5.965
 7471SOL    HW134472   2.539   2.688   5.947
 7471SOL    HW234473   2.669   2.612   5.883
 7472SOL     OW34474   2.201   3.546   5.777
 7472SOL    HW134475   2.269   3.596   5.722
 7472SOL    HW234476   2.160   3.609   5.843
 7473SOL     OW34477   3.176   3.582   6.683
 7473SOL    HW134478   3.205   3.604   6.590
 7473SOL    HW234479   3.101   3.516   6.680
 7474SOL     OW34480   1.938   3.119   6.471
 7474SOL    HW134481   1.868   3.173   6.424
 7474SOL    HW234482   1.897   3.035   6.506
 7475SOL     OW34483   2.618   1.904   5.969
 7475SOL    HW134484   2.623   1.900   5.870
 7475SOL    HW234485   2.598   1.998   5.997
 7476SOL     OW34486   2.019   2.919   6.002
 7476SOL    HW134487   2.081   2.996   6.014
 7476SOL    HW234488   1.976   2.924   5.912
 7477SOL     OW34489   3.424   2.145   7.091
 7477SOL    HW134490   3.382   2.236   7.088
 7477SOL    HW234491   3.474   2.135   7.178
 7478SOL     OW34492   3.253   1.898   5.677
 7478SOL    HW134493   3.351   1.894   5.695
 7478SOL    HW234494   3.211   1.809   5.694
 7479SOL     OW34495   3.444   1.859   7.119
 7479SOL    HW134496   3.434   1.816   7.029
 7479SOL    HW234497   3.409   1.953   7.115
 7480SOL     OW34498   2.641   2.134   6.304
 7480SOL    HW134499   2.693   2.056   6.337
 7480SOL    HW234500   2.701   2.213   6.294
 7481SOL     OW34501   3.231   2.430   6.614
 7481SOL    HW134502   3.267   2.449   6.523
 7481SOL    HW234503   3.251   2.507   6.675
 7482SOL     OW34504   3.434   1.900   5.992
 7482SOL    HW134505   3.455   1.876   5.897
 7482SOL    HW234506   3.343   1.942   5.996
 7483SOL     OW34507   2.445   3.245   7.318
 7483SOL    HW134508   2.400   3.311   7.259
 7483SOL    HW234509   2.533   3.282   7.349
 7484SOL     OW34510   2.258   2.939   7.158
 7484SOL    HW134511   2.318   2.904   7.086
 7484SOL    HW234512   2.247   3.038   7.148
 7485SOL     OW34513   1.990   3.271   6.693
 7485SOL    HW134514   1.978   3.219   6.608
 7485SOL    HW234515   1.908   3.262   6.749
 7486SOL     OW34516   3.024   2.469   6.369
 7486SOL    HW134517   3.122   2.472   6.351
 7486SOL    HW234518   3.007   2.418   6.454
 7487SOL     OW34519   3.551   2.469   7.265
 7487SOL    HW134520   3.558   2.549   7.206
 7487SOL    HW234521   3.642   2.436   7.289
 7488SOL     OW34522   3.288   2.171   6.672
 7488SOL    HW134523   3.265   2.265   6.648
 7488SOL    HW234524   3.246   2.147   6.760
 7489SOL     OW34525   3.330   2.327   7.350
 7489SOL    HW134526   3.407   2.382   7.318
 7489SOL    HW234527   3.361   2.265   7.422
 7490SOL     OW34528   3.175   2.683   5.927
 7490SOL    HW134529   3.122   2.704   6.009
 7490SOL    HW234530   3.270   2.710   5.941
 7491SOL     OW34531   3.419   2.818   6.216
 7491SOL    HW134532   3.420   2.802   6.117
 7491SOL    HW234533   3.326   2.811   6.250
 7492SOL     OW34534   3.603   2.682   7.099
 7492SOL    HW134535   3.540   2.758   7.087
 7492SOL    HW234536   3.696   2.716   7.108
 7493SOL     OW34537   3.482   2.173   5.748
 7493SOL    HW134538   3.556   2.172   5.814
 7493SOL    HW234539   3.395   2.187   5.795
 7494SOL     OW34540   2.575   3.339   6.973
 7494SOL    HW134541   2.514   3.415   6.950
 7494SOL    HW234542   2.540   3.256   6.930
 7495SOL     OW34543   2.008   2.169   7.259
 7495SOL    HW134544   2.020   2.179   7.160
 7495SOL    HW234545   1.914   2.141   7.279
 7496SOL     OW34546   1.910   3.554   7.196
 7496SOL    HW134547   1.994   3.569   7.247
 7496SOL    HW234548   1.832   3.559   7.259
 7497SOL     OW34549   2.087   2.109   6.185
 7497SOL    HW134550   2.071   2.176   6.258
 7497SOL    HW234551   2.106   2.020   6.226
 7498SOL     OW34552   3.232   3.446   7.050
 7498SOL    HW134553   3.173   3.514   7.094
 7498SOL    HW234554   3.290   3.492   6.981
 7499SOL     OW34555   2.179   2.423   5.658
 7499SOL    HW134556   2.265   2.462   5.626
 7499SOL    HW234557   2.125   2.494   5.704
 7500SOL     OW34558   3.624   2.085   6.908
 7500SOL    HW134559   3.546   2.110   6.965
 7500SOL    HW234560   3.600   2.097   6.811
 7501SOL     OW34561   2.348   3.679   6.244
 7501SOL    HW134562   2.266   3.622   6.232
 7501SOL    HW234563   2.425   3.636   6.197
 7502SOL     OW34564   2.202   3.151   6.822
 7502SOL    HW134565   2.199   3.171   6.920
 7502SOL    HW234566   2.131   3.203   6.775
 7503SOL     OW34567   3.022   3.429   7.372
 7503SOL    HW134568   2.997   3.338   7.338
 7503SOL    HW234569   3.035   3.491   7.295
 7504SOL     OW34570   2.617   3.154   6.014
 7504SOL    HW134571   2.633   3.091   5.938
 7504SOL    HW234572   2.617   3.103   6.100
 7505SOL     OW34573   2.229   2.654   6.307
 7505SOL    HW134574   2.217   2.664   6.208
 7505SOL    HW234575   2.303   2.589   6.325
 7506SOL     OW34576   2.149   2.173   5.761
 7506SOL    HW134577   2.173   2.111   5.687
 7506SOL    HW234578   2.157   2.268   5.730
 7507SOL     OW34579   2.032   2.293   6.387
 7507SOL    HW134580   1.939   2.314   6.358
 7507SOL    HW234581   2.067   2.367   6.445
 7508SOL     OW34582   2.361   2.994   5.794
 7508SOL    HW134583   2.461   2.996   5.797
 7508SOL    HW234584   2.327   3.078   5.751
 7509SOL     OW34585   2.970   2.553   5.592
 7509SOL    HW134586   2.919   2.615   5.531
 7509SOL    HW234587   3.035   2.500   5.539
 7510SOL     OW34588   2.726   2.513   5.741
 7510SOL    HW134589   2.815   2.523   5.696
 7510SOL    HW234590   2.702   2.417   5.748
 7511SOL     OW34591   3.195   2.032   6.012
 7511SOL    HW134592   3.116   2.039   6.073
 7511SOL    HW234593   3.222   2.123   5.981
 7512SOL     OW34594   3.271   2.371   7.035
 7512SOL    HW134595   3.209   2.405   7.106
 7512SOL    HW234596   3.224   2.303   6.980
 7513SOL     OW34597   1.897   1.931   5.727
 7513SOL    HW134598   1.985   1.882   5.722
 7513SOL    HW234599   1.896   1.990   5.808
 7514SOL     OW34600   2.137   2.905   6.718
 7514SOL    HW134601   2.134   2.830   6.784
 7514SOL    HW234602   2.168   2.988   6.764
 7515SOL     OW34603   3.506   2.912   5.740
 7515SOL    HW134604   3.604   2.924   5.757
 7515SOL    HW234605   3.491   2.895   5.643
 7516SOL     OW34606   2.495   2.433   6.808
 7516SOL    HW134607   2.587   2.472   6.815
 7516SOL    HW234608   2.432   2.484   6.866
 7517SOL     OW34609   2.670   2.850   7.033
 7517SOL    HW134610   2.720   2.909   6.969
 7517SOL    HW234611   2.646   2.902   7.114
 7518SOL     OW34612   3.032   2.914   7.237
 7518SOL    HW134613   2.953   2.854   7.251
 7518SOL    HW234614   3.115   2.865   7.263
 7519SOL     OW34615   2.978   2.113   6.181
 7519SOL    HW134616   2.929   2.197   6.202
 7519SOL    HW234617   2.955   2.043   6.249
 7520SOL     OW34618   3.054   3.615   7.174
 7520SOL    HW134619   2.980   3.637   7.110
 7520SOL    HW234620   3.085   3.698   7.219
 7521SOL     OW34621   2.168   3.682   6.814
 7521SOL    HW134622   2.140   3.631   6.732
 7521SOL    HW234623   2.091   3.691   6.876
 7522SOL     OW34624   2.832   3.092   6.412
 7522SOL    HW134625   2.871   3.171   6.365
 7522SOL    HW234626   2.905   3.038   6.453
 7523SOL     OW34627   2.485   2.873   6.448
 7523SOL    HW134628   2.532   2.789   6.422
 7523SOL    HW234629   2.386   2.856   6.450
 7524SOL     OW34630   1.886   2.881   6.610
 7524SOL    HW134631   1.971   2.899   6.659
 7524SOL    HW234632   1.901   2.809   6.542
 7525SOL     OW34633   2.190   1.866   5.989
 7525SOL    HW134634   2.247   1.948   5.976
 7525SOL    HW234635   2.171   1.853   6.086
 7526SOL     OW34636   2.533   2.491   7.188
 7526SOL    HW134637   2.477   2.524   7.113
 7526SOL    HW234638   2.628   2.485   7.159
 7527SOL     OW34639   1.942   2.944   5.736
 7527SOL    HW134640   1.955   2.872   5.667
 7527SOL    HW234641   1.979   3.030   5.702
 7528SOL     OW34642   3.589   2.053   6.387
 7528SOL    HW134643   3.580   2.079   6.483
 7528SOL    HW234644   3.668   2.099   6.347
 7529SOL     OW34645   2.630   3.051   6.606
 7529SOL    HW134646   2.572   2.984   6.559
 7529SOL    HW234647   2.702   3.082   6.544
 7530SOL     OW34648   3.092   2.444   5.831
 7530SOL    HW134649   3.121   2.530   5.873
 7530SOL    HW234650   3.047   2.464   5.743
 7531SOL     OW34651   3.398   3.289   7.204
 7531SOL    HW134652   3.357   3.212   7.252
 7531SOL    HW234653   3.328   3.334   7.148
 7532SOL     OW34654   2.070   2.703   6.899
 7532SOL    HW134655   2.083   2.614   6.943
 7532SOL    HW234656   2.036   2.769   6.967
 7533SOL     OW34657   2.674   3.341   5.563
 7533SOL    HW134658   2.626   3.401   5.628
 7533SOL    HW234659   2.735   3.280   5.613
 7534SOL     OW34660   2.503   3.564   6.640
 7534SOL    HW134661   2.500   3.517   6.551
 7534SOL    HW234662   2.434   3.524   6.701
 7535SOL     OW34663   2.624   3.009   6.256
 7535SOL    HW134664   2.702   3.048   6.303
 7535SOL    HW234665   2.573   2.950   6.319
 7536SOL     OW34666   2.789   3.373   6.058
 7536SOL    HW134667   2.854   3.391   5.984
 7536SOL    HW234668   2.733   3.293   6.035
 7537SOL     OW34669   1.986   2.703   6.426
 7537SOL    HW134670   2.080   2.689   6.395
 7537SOL    HW234671   1.929   2.731   6.348
 7538SOL     OW34672   1.881   2.779   7.358
 7538SOL    HW134673   1.781   2.779   7.349
 7538SOL    HW234674   1.907   2.728   7.440
 7539SOL     OW34675   2.829   3.646   7.003
 7539SOL    HW134676   2.786   3.582   7.067
 7539SOL    HW234677   2.760   3.708   6.966
 7540SOL     OW34678   3.054   2.987   6.541
 7540SOL    HW134679   3.092   3.078   6.550
 7540SOL    HW234680   3.060   2.939   6.629
 7541SOL     OW34681   2.385   2.267   7.342
 7541SOL    HW134682   2.454   2.273   7.270
 7541SOL    HW234683   2.366   2.359   7.378
 7542SOL     OW34684   2.377   2.744   5.924
 7542SOL    HW134685   2.361   2.834   5.883
 7542SOL    HW234686   2.292   2.707   5.960
 7543SOL     OW34687   3.415   2.798   6.539
 7543SOL    HW134688   3.456   2.875   6.491
 7543SOL    HW234689   3.377   2.829   6.626
 7544SOL     OW34690   3.192   2.127   6.926
 7544SOL    HW134691   3.264   2.103   6.992
 7544SOL    HW234692   3.139   2.045   6.905
 7545SOL     OW34693   3.191   1.964   7.281
 7545SOL    HW134694   3.221   1.956   7.377
 7545SOL    HW234695   3.114   2.027   7.276
 7546SOL     OW34696   2.304   3.440   7.173
 7546SOL    HW134697   2.250   3.502   7.230
 7546SOL    HW234698   2.341   3.491   7.095
 7547SOL     OW34699   3.640   3.289   7.075
 7547SOL    HW134700   3.682   3.378   7.096
 7547SOL    HW234701   3.553   3.281   7.123
 7548SOL     OW34702   2.975   2.338   6.607
 7548SOL    HW134703   3.069   2.366   6.625
 7548SOL    HW234704   2.921   2.346   6.690
 7549SOL     OW34705   2.326   3.357   6.231
 7549SOL    HW134706   2.318   3.258   6.235
 7549SOL    HW234707   2.235   3.398   6.226
 7550SOL     OW34708   2.961   3.408   6.694
 7550SOL    HW134709   2.916   3.398   6.783
 7550SOL    HW234710   2.892   3.413   6.622
 7551SOL     OW34711   2.144   3.609   7.337
 7551SOL    HW134712   2.172   3.705   7.334
 7551SOL    HW234713   2.142   3.577   7.432
 7552SOL     OW34714   1.964   3.122   7.210
 7552SOL    HW134715   1.948   3.030   7.174
 7552SOL    HW234716   1.897   3.184   7.170
 7553SOL     OW34717   2.057   3.526   6.607
 7553SOL    HW134718   2.039   3.433   6.640
 7553SOL    HW234719   2.079   3.523   6.510
 7554SOL     OW34720   2.876   2.005   6.424
 7554SOL    HW134721   2.906   2.076   6.488
 7554SOL    HW234722   2.830   1.932   6.474
 7555SOL     OW34723   2.930   3.061   5.936
 7555SOL    HW134724   3.020   3.078   5.974
 7555SOL    HW234725   2.886   2.985   5.986
 7556SOL     OW34726   2.633   2.993   5.782
 7556SOL    HW134727   2.705   3.054   5.750
 7556SOL    HW234728   2.647   2.901   5.746
 7557SOL     OW34729   2.656   1.967   5.691
 7557SOL    HW134730   2.736   1.908   5.693
 7557SOL    HW234731   2.682   2.060   5.719
 7558SOL     OW34732   2.441   2.482   6.343
 7558SOL    HW134733   2.444   2.420   6.422
 7558SOL    HW234734   2.490   2.440   6.266
 7559SOL     OW34735   2.413   2.866   6.947
 7559SOL    HW134736   2.504   2.844   6.981
 7559SOL    HW234737   2.416   2.951   6.894
 7560SOL     OW34738   3.612   2.956   6.873
 7560SOL    HW134739   3.611   3.053   6.848
 7560SOL    HW234740   3.665   2.905   6.806
 7561SOL     OW34741   2.051   3.156   5.614
 7561SOL    HW134742   2.036   3.166   5.515
 7561SOL    HW234743   2.140   3.196   5.637
 7562SOL     OW34744   2.517   3.489   5.726
 7562SOL    HW134745   2.467   3.574   5.709
 7562SOL    HW234746   2.489   3.450   5.813
 7563SOL     OW34747   3.186   2.968   7.014
 7563SOL    HW134748   3.126   2.933   7.086
 7563SOL    HW234749   3.162   3.062   6.993
 7564SOL     OW34750   2.398   3.573   6.940
 7564SOL    HW134751   2.468   3.643   6.939
 7564SOL    HW234752   2.314   3.608   6.897
 7565SOL     OW34753   2.035   2.434   7.327
 7565SOL    HW134754   2.034   2.335   7.312
 7565SOL    HW234755   2.089   2.455   7.408
 7566SOL     OW34756   3.501   3.370   6.585
 7566SOL    HW134757   3.537   3.460   6.609
 7566SOL    HW234758   3.523   3.305   6.659
 7567SOL     OW34759   1.866   2.780   6.191
 7567SOL    HW134760   1.925   2.853   6.156
 7567SOL    HW234761   1.798   2.756   6.122
 7568SOL     OW34762   2.361   2.585   6.993
 7568SOL    HW134763   2.270   2.554   7.018
 7568SOL    HW234764   2.357   2.682   6.969
 7569SOL     OW34765   3.503   3.015   6.390
 7569SOL    HW134766   3.480   3.110   6.372
 7569SOL    HW234767   3.473   2.958   6.313
 7570SOL     OW34768   2.475   3.122   6.826
 7570SOL    HW134769   2.378   3.139   6.807
 7570SOL    HW234770   2.524   3.105   6.741
 7571SOL     OW34771   2.001   2.558   6.662
 7571SOL    HW134772   2.030   2.616   6.738
 7571SOL    HW234773   1.998   2.612   6.578
 7572SOL     OW34774   2.195   3.202   7.090
 7572SOL    HW134775   2.234   3.289   7.120
 7572SOL    HW234776   2.109   3.186   7.139
 7573SOL     OW34777   3.475   3.536   7.300
 7573SOL    HW134778   3.451   3.441   7.279
 7573SOL    HW234779   3.444   3.595   7.225
 7574SOL     OW34780   3.197   3.096   6.008
 7574SOL    HW134781   3.288   3.099   6.049
 7574SOL    HW234782   3.205   3.077   5.910
 7575SOL     OW34783   2.550   2.169   6.041
 7575SOL    HW134784   2.452   2.156   6.027
 7575SOL    HW234785   2.573   2.148   6.136
 7576SOL     OW34786   3.460   1.849   6.262
 7576SOL    HW134787   3.446   1.875   6.166
 7576SOL    HW234788   3.510   1.921   6.309
 7577SOL     OW34789   3.038   2.607   6.905
 7577SOL    HW134790   3.133   2.603   6.876
 7577SOL    HW234791   2.987   2.668   6.844
 7578SOL     OW34792   2.634   2.674   6.328
 7578SOL    HW134793   2.566   2.602   6.340
 7578SOL    HW234794   2.667   2.673   6.234
 7579SOL     OW34795   3.142   3.245   6.566
 7579SOL    HW134796   3.076   3.299   6.618
 7579SOL    HW234797   3.164   3.293   6.480
 7580SOL     OW34798   2.900   3.260   8.113
 7580SOL    HW134799   2.989   3.303   8.124
 7580SOL    HW234800   2.861   3.284   8.024
 7581SOL     OW34801   3.419   3.181   8.023
 7581SOL    HW134802   3.422   3.268   8.072
 7581SOL    HW234803   3.506   3.168   7.974
 7582SOL     OW34804   3.458   2.490   8.814
 7582SOL    HW134805   3.369   2.450   8.833
 7582SOL    HW234806   3.514   2.488   8.897
 7583SOL     OW34807   2.217   2.064   7.395
 7583SOL    HW134808   2.135   2.089   7.343
 7583SOL    HW234809   2.290   2.130   7.375
 7584SOL     OW34810   3.130   3.405   8.190
 7584SOL    HW134811   3.117   3.503   8.206
 7584SOL    HW234812   3.226   3.387   8.172
 7585SOL     OW34813   3.071   1.881   8.727
 7585SOL    HW134814   2.981   1.848   8.755
 7585SOL    HW234815   3.109   1.820   8.658
 7586SOL     OW34816   2.818   2.737   9.129
 7586SOL    HW134817   2.798   2.677   9.052
 7586SOL    HW234818   2.736   2.750   9.184
 7587SOL     OW34819   2.407   3.320   7.784
 7587SOL    HW134820   2.365   3.346   7.871
 7587SOL    HW234821   2.476   3.249   7.801
 7588SOL     OW34822   2.387   1.879   7.513
 7588SOL    HW134823   2.482   1.910   7.513
 7588SOL    HW234824   2.329   1.948   7.471
 7589SOL     OW34825   3.458   2.914   8.927
 7589SOL    HW134826   3.362   2.935   8.909
 7589SOL    HW234827   3.514   2.946   8.850
 7590SOL     OW34828   3.302   2.908   8.625
 7590SOL    HW134829   3.259   2.914   8.715
 7590SOL    HW234830   3.307   2.999   8.585
 7591SOL     OW34831   2.820   3.238   8.872
 7591SOL    HW134832   2.742   3.299   8.861
 7591SOL    HW234833   2.814   3.164   8.805
 7592SOL     OW34834   2.325   3.066   8.056
 7592SOL    HW134835   2.268   3.024   8.127
 7592SOL    HW234836   2.416   3.026   8.058
 7593SOL     OW34837   2.569   2.475   7.947
 7593SOL    HW134838   2.600   2.543   7.880
 7593SOL    HW234839   2.548   2.389   7.900
 7594SOL     OW34840   3.101   2.382   9.132
 7594SOL    HW134841   3.199   2.371   9.145
 7594SOL    HW234842   3.055   2.294   9.146
 7595SOL     OW34843   2.282   3.233   7.545
 7595SOL    HW134844   2.341   3.245   7.465
 7595SOL    HW234845   2.324   3.277   7.624
 7596SOL     OW34846   2.392   2.149   8.385
 7596SOL    HW134847   2.465   2.217   8.399
 7596SOL    HW234848   2.429   2.070   8.337
 7597SOL     OW34849   2.171   2.607   7.852
 7597SOL    HW134850   2.212   2.650   7.933
 7597SOL    HW234851   2.075   2.586   7.871
 7598SOL     OW34852   2.658   3.551   7.996
 7598SOL    HW134853   2.702   3.473   7.952
 7598SOL    HW234854   2.653   3.628   7.932
 7599SOL     OW34855   3.634   3.420   7.668
 7599SOL    HW134856   3.732   3.438   7.663
 7599SOL    HW234857   3.584   3.499   7.631
 7600SOL     OW34858   3.502   2.183   8.499
 7600SOL    HW134859   3.540   2.273   8.521
 7600SOL    HW234860   3.402   2.189   8.497
 7601SOL     OW34861   2.918   2.221   7.736
 7601SOL    HW134862   2.968   2.307   7.735
 7601SOL    HW234863   2.923   2.180   7.827
 7602SOL     OW34864   2.046   2.821   8.961
 7602SOL    HW134865   2.135   2.863   8.979
 7602SOL    HW234866   2.005   2.793   9.048
 7603SOL     OW34867   2.359   2.541   7.395
 7603SOL    HW134868   2.338   2.639   7.396
 7603SOL    HW234869   2.428   2.523   7.325
 7604SOL     OW34870   2.501   3.456   8.190
 7604SOL    HW134871   2.558   3.500   8.121
 7604SOL    HW234872   2.423   3.412   8.146
 7605SOL     OW34873   2.796   2.535   8.936
 7605SOL    HW134874   2.832   2.449   8.972
 7605SOL    HW234875   2.863   2.576   8.874
 7606SOL     OW34876   3.410   3.411   8.181
 7606SOL    HW134877   3.424   3.400   8.279
 7606SOL    HW234878   3.426   3.506   8.155
 7607SOL     OW34879   2.144   3.116   7.848
 7607SOL    HW134880   2.213   3.097   7.918
 7607SOL    HW234881   2.159   3.055   7.770
 7608SOL     OW34882   3.038   2.070   7.543
 7608SOL    HW134883   3.109   2.011   7.581
 7608SOL    HW234884   2.995   2.123   7.617
 7609SOL     OW34885   2.237   2.418   8.571
 7609SOL    HW134886   2.236   2.319   8.590
 7609SOL    HW234887   2.144   2.454   8.575
 7610SOL     OW34888   3.261   2.638   8.675
 7610SOL    HW134889   3.281   2.734   8.653
 7610SOL    HW234890   3.339   2.598   8.724
 7611SOL     OW34891   2.244   2.144   7.852
 7611SOL    HW134892   2.190   2.183   7.926
 7611SOL    HW234893   2.204   2.170   7.764
 7612SOL     OW34894   3.371   3.619   8.712
 7612SOL    HW134895   3.292   3.620   8.651
 7612SOL    HW234896   3.455   3.629   8.658
 7613SOL     OW34897   3.586   2.432   8.574
 7613SOL    HW134898   3.678   2.471   8.575
 7613SOL    HW234899   3.539   2.454   8.659
 7614SOL     OW34900   3.583   3.647   8.530
 7614SOL    HW134901   3.649   3.661   8.603
 7614SOL    HW234902   3.594   3.718   8.460
 7615SOL     OW34903   2.818   2.366   8.026
 7615SOL    HW134904   2.868   2.425   8.089
 7615SOL    HW234905   2.728   2.407   8.006
 7616SOL     OW34906   3.100   2.858   7.550
 7616SOL    HW134907   3.113   2.797   7.628
 7616SOL    HW234908   3.029   2.821   7.489
 7617SOL     OW34909   2.975   2.139   9.173
 7617SOL    HW134910   2.999   2.118   9.268
 7617SOL    HW234911   2.882   2.111   9.154
 7618SOL     OW34912   3.596   2.529   7.764
 7618SOL    HW134913   3.543   2.444   7.768
 7618SOL    HW234914   3.668   2.527   7.834
 7619SOL     OW34915   2.856   3.608   7.531
 7619SOL    HW134916   2.891   3.559   7.451
 7619SOL    HW234917   2.873   3.553   7.613
 7620SOL     OW34918   2.668   1.904   9.091
 7620SOL    HW134919   2.679   1.806   9.077
 7620SOL    HW234920   2.686   1.926   9.187
 7621SOL     OW34921   3.530   2.518   8.314
 7621SOL    HW134922   3.490   2.609   8.320
 7621SOL    HW234923   3.542   2.480   8.406
 7622SOL     OW34924   2.940   3.184   9.121
 7622SOL    HW134925   2.983   3.094   9.111
 7622SOL    HW234926   2.891   3.207   9.037
 7623SOL     OW34927   2.495   3.009   9.144
 7623SOL    HW134928   2.480   3.108   9.146
 7623SOL    HW234929   2.579   2.987   9.193
 7624SOL     OW34930   3.580   2.054   9.099
 7624SOL    HW134931   3.539   2.075   9.188
 7624SOL    HW234932   3.535   1.973   9.061
 7625SOL     OW34933   1.920   2.574   7.965
 7625SOL    HW134934   1.932   2.508   8.039
 7625SOL    HW234935   1.894   2.663   8.004
 7626SOL     OW34936   2.176   2.067   8.219
 7626SOL    HW134937   2.246   2.105   8.279
 7626SOL    HW234938   2.203   1.976   8.189
 7627SOL     OW34939   2.226   2.132   8.597
 7627SOL    HW134940   2.235   2.038   8.631
 7627SOL    HW234941   2.282   2.143   8.515
 7628SOL     OW34942   2.836   2.717   8.324
 7628SOL    HW134943   2.820   2.787   8.254
 7628SOL    HW234944   2.885   2.640   8.283
 7629SOL     OW34945   2.053   3.373   7.786
 7629SOL    HW134946   2.087   3.280   7.797
 7629SOL    HW234947   2.105   3.419   7.714
 7630SOL     OW34948   3.257   3.188   8.606
 7630SOL    HW134949   3.206   3.207   8.522
 7630SOL    HW234950   3.197   3.200   8.685
 7631SOL     OW34951   2.043   3.436   8.056
 7631SOL    HW134952   1.948   3.453   8.083
 7631SOL    HW234953   2.047   3.422   7.957
 7632SOL     OW34954   3.520   3.238   8.666
 7632SOL    HW134955   3.544   3.286   8.751
 7632SOL    HW234956   3.421   3.225   8.662
 7633SOL     OW34957   2.339   2.812   7.392
 7633SOL    HW134958   2.308   2.858   7.308
 7633SOL    HW234959   2.321   2.871   7.471
 7634SOL     OW34960   2.802   3.057   8.673
 7634SOL    HW134961   2.838   2.966   8.652
 7634SOL    HW234962   2.764   3.098   8.590
 7635SOL     OW34963   1.943   2.650   7.589
 7635SOL    HW134964   2.022   2.587   7.588
 7635SOL    HW234965   1.869   2.609   7.642
 7636SOL     OW34966   3.425   2.741   7.793
 7636SOL    HW134967   3.488   2.664   7.780
 7636SOL    HW234968   3.451   2.815   7.731
 7637SOL     OW34969   2.717   3.659   8.366
 7637SOL    HW134970   2.756   3.571   8.337
 7637SOL    HW234971   2.646   3.642   8.435
 7638SOL     OW34972   2.607   2.748   7.440
 7638SOL    HW134973   2.624   2.656   7.477
 7638SOL    HW234974   2.510   2.758   7.420
 7639SOL     OW34975   3.213   2.274   7.833
 7639SOL    HW134976   3.168   2.341   7.774
 7639SOL    HW234977   3.312   2.287   7.829
 7640SOL     OW34978   2.014   2.059   8.767
 7640SOL    HW134979   2.069   2.105   8.697
 7640SOL    HW234980   1.917   2.079   8.752
 7641SOL     OW34981   2.878   2.804   8.580
 7641SOL    HW134982   2.868   2.768   8.488
 7641SOL    HW234983   2.805   2.769   8.638
 7642SOL     OW34984   3.486   2.285   7.845
 7642SOL    HW134985   3.574   2.239   7.835
 7642SOL    HW234986   3.470   2.307   7.941
 7643SOL     OW34987   2.745   3.387   8.299
 7643SOL    HW134988   2.806   3.346   8.231
 7643SOL    HW234989   2.656   3.405   8.257
 7644SOL     OW34990   2.670   2.225   7.632
 7644SOL    HW134991   2.606   2.219   7.709
 7644SOL    HW234992   2.764   2.225   7.667
 7645SOL     OW34993   2.827   3.144   7.528
 7645SOL    HW134994   2.878   3.124   7.612
 7645SOL    HW234995   2.889   3.147   7.451
 7646SOL     OW34996   3.056   2.750   8.005
 7646SOL    HW134997   3.077   2.755   8.103
 7646SOL    HW234998   2.966   2.790   7.988
 7647SOL     OW34999   2.705   3.518   9.026
 7647SOL    HW135000   2.654   3.465   8.958
 7647SOL    HW235001   2.709   3.467   9.112
 7648SOL     OW35002   3.165   2.769   8.263
 7648SOL    HW135003   3.255   2.762   8.307
 7648SOL    HW235004   3.112   2.842   8.307
 7649SOL     OW35005   2.163   2.949   8.243
 7649SOL    HW135006   2.072   2.991   8.243
 7649SOL    HW235007   2.188   2.924   8.336
 7650SOL     OW35008   2.804   2.842   7.910
 7650SOL    HW135009   2.763   2.773   7.851
 7650SOL    HW235010   2.733   2.888   7.963
 7651SOL     OW35011   3.098   3.226   8.824
 7651SOL    HW135012   3.142   3.312   8.850
 7651SOL    HW235013   2.999   3.234   8.834
 7652SOL     OW35014   1.916   2.203   7.808
 7652SOL    HW135015   1.979   2.213   7.731
 7652SOL    HW235016   1.965   2.216   7.894
 7653SOL     OW35017   3.513   3.643   7.546
 7653SOL    HW135018   3.600   3.690   7.535
 7653SOL    HW235019   3.490   3.593   7.463
 7654SOL     OW35020   1.912   3.701   8.792
 7654SOL    HW135021   1.860   3.787   8.791
 7654SOL    HW235022   1.899   3.656   8.880
 7655SOL     OW35023   2.647   2.661   7.765
 7655SOL    HW135024   2.553   2.694   7.749
 7655SOL    HW235025   2.677   2.607   7.686
 7656SOL     OW35026   2.199   2.483   8.301
 7656SOL    HW135027   2.265   2.447   8.235
 7656SOL    HW235028   2.218   2.445   8.392
 7657SOL     OW35029   2.163   3.603   7.630
 7657SOL    HW135030   2.249   3.638   7.594
 7657SOL    HW235031   2.153   3.631   7.725
 7658SOL     OW35032   3.189   3.564   8.505
 7658SOL    HW135033   3.176   3.612   8.418
 7658SOL    HW235034   3.264   3.498   8.495
 7659SOL     OW35035   1.909   3.049   8.332
 7659SOL    HW135036   1.821   3.051   8.284
 7659SOL    HW235037   1.906   2.979   8.404
 7660SOL     OW35038   2.595   1.914   7.809
 7660SOL    HW135039   2.607   1.911   7.710
 7660SOL    HW235040   2.573   2.007   7.837
 7661SOL     OW35041   1.881   3.014   7.906
 7661SOL    HW135042   1.962   3.072   7.918
 7661SOL    HW235043   1.882   2.974   7.815
 7662SOL     OW35044   3.417   2.169   8.907
 7662SOL    HW135045   3.367   2.252   8.932
 7662SOL    HW235046   3.474   2.140   8.984
 7663SOL     OW35047   3.052   2.170   8.315
 7663SOL    HW135048   3.087   2.214   8.232
 7663SOL    HW235049   3.122   2.172   8.386
 7664SOL     OW35050   3.268   1.894   7.553
 7664SOL    HW135051   3.363   1.866   7.570
 7664SOL    HW235052   3.209   1.814   7.549
 7665SOL     OW35053   3.413   1.862   8.984
 7665SOL    HW135054   3.408   1.834   8.888
 7665SOL    HW235055   3.326   1.904   9.010
 7666SOL     OW35056   2.583   2.158   8.118
 7666SOL    HW135057   2.538   2.076   8.151
 7666SOL    HW235058   2.677   2.161   8.150
 7667SOL     OW35059   3.126   2.489   8.490
 7667SOL    HW135060   3.120   2.545   8.407
 7667SOL    HW235061   3.173   2.541   8.562
 7668SOL     OW35062   3.404   1.867   7.878
 7668SOL    HW135063   3.429   1.838   7.786
 7668SOL    HW235064   3.319   1.920   7.874
 7669SOL     OW35065   2.449   3.280   9.159
 7669SOL    HW135066   2.403   3.339   9.093
 7669SOL    HW235067   2.534   3.322   9.189
 7670SOL     OW35068   2.305   2.926   8.973
 7670SOL    HW135069   2.278   3.010   8.926
 7670SOL    HW235070   2.379   2.947   9.037
 7671SOL     OW35071   1.989   3.241   8.516
 7671SOL    HW135072   1.969   3.181   8.439
 7671SOL    HW235073   1.910   3.244   8.578
 7672SOL     OW35074   2.963   2.492   8.222
 7672SOL    HW135075   3.044   2.449   8.183
 7672SOL    HW235076   2.930   2.437   8.299
 7673SOL     OW35077   3.597   2.488   9.067
 7673SOL    HW135078   3.612   2.583   9.040
 7673SOL    HW235079   3.683   2.449   9.100
 7674SOL     OW35080   3.230   2.233   8.515
 7674SOL    HW135081   3.200   2.328   8.508
 7674SOL    HW235082   3.207   2.197   8.605
 7675SOL     OW35083   3.372   2.339   9.152
 7675SOL    HW135084   3.453   2.393   9.127
 7675SOL    HW235085   3.399   2.265   9.214
 7676SOL     OW35086   3.159   2.696   7.764
 7676SOL    HW135087   3.115   2.716   7.852
 7676SOL    HW235088   3.257   2.712   7.772
 7677SOL     OW35089   3.391   2.754   8.062
 7677SOL    HW135090   3.395   2.752   7.962
 7677SOL    HW235091   3.297   2.738   8.092
 7678SOL     OW35092   3.669   2.737   8.974
 7678SOL    HW135093   3.590   2.797   8.965
 7678SOL    HW235094   3.731   2.750   8.897
 7679SOL     OW35095   3.420   2.144   7.546
 7679SOL    HW135096   3.447   2.182   7.634
 7679SOL    HW235097   3.352   2.072   7.560
 7680SOL     OW35098   2.580   3.398   8.813
 7680SOL    HW135099   2.517   3.476   8.810
 7680SOL    HW235100   2.558   3.335   8.738
 7681SOL     OW35101   1.900   3.558   9.028
 7681SOL    HW135102   1.986   3.571   9.077
 7681SOL    HW235103   1.824   3.564   9.093
 7682SOL     OW35104   2.054   2.224   8.039
 7682SOL    HW135105   2.012   2.299   8.089
 7682SOL    HW235106   2.097   2.161   8.104
 7683SOL     OW35107   3.231   3.452   8.890
 7683SOL    HW135108   3.167   3.513   8.936
 7683SOL    HW235109   3.290   3.505   8.829
 7684SOL     OW35110   2.173   2.483   7.592
 7684SOL    HW135111   2.251   2.506   7.534
 7684SOL    HW235112   2.188   2.519   7.684
 7685SOL     OW35113   3.620   2.096   8.736
 7685SOL    HW135114   3.546   2.124   8.798
 7685SOL    HW235115   3.590   2.109   8.642
 7686SOL     OW35116   2.216   3.645   8.126
 7686SOL    HW135117   2.161   3.562   8.128
 7686SOL    HW235118   2.219   3.682   8.034
 7687SOL     OW35119   2.233   3.151   8.619
 7687SOL    HW135120   2.233   3.163   8.719
 7687SOL    HW235121   2.150   3.191   8.581
 7688SOL     OW35122   3.006   3.442   9.214
 7688SOL    HW135123   2.982   3.350   9.184
 7688SOL    HW235124   3.019   3.501   9.135
 7689SOL     OW35125   2.591   3.119   7.838
 7689SOL    HW135126   2.608   3.064   7.756
 7689SOL    HW235127   2.587   3.060   7.918
 7690SOL     OW35128   2.253   2.737   8.079
 7690SOL    HW135129   2.216   2.813   8.133
 7690SOL    HW235130   2.349   2.723   8.104
 7691SOL     OW35131   2.117   2.212   7.618
 7691SOL    HW135132   2.152   2.157   7.542
 7691SOL    HW235133   2.137   2.308   7.602
 7692SOL     OW35134   1.947   2.422   8.191
 7692SOL    HW135135   1.869   2.460   8.241
 7692SOL    HW235136   2.032   2.444   8.240
 7693SOL     OW35137   2.346   2.978   7.617
 7693SOL    HW135138   2.446   2.984   7.617
 7693SOL    HW235139   2.308   3.066   7.592
 7694SOL     OW35140   2.958   2.518   7.443
 7694SOL    HW135141   2.931   2.601   7.394
 7694SOL    HW235142   3.005   2.457   7.380
 7695SOL     OW35143   2.702   2.500   7.548
 7695SOL    HW135144   2.796   2.501   7.513
 7695SOL    HW235145   2.673   2.405   7.563
 7696SOL     OW35146   3.165   2.011   7.883
 7696SOL    HW135147   3.074   2.012   7.924
 7696SOL    HW235148   3.193   2.104   7.861
 7697SOL     OW35149   3.219   2.380   8.875
 7697SOL    HW135150   3.164   2.403   8.955
 7697SOL    HW235151   3.179   2.301   8.829
 7698SOL     OW35152   1.917   1.910   7.555
 7698SOL    HW135153   1.994   1.846   7.563
 7698SOL    HW235154   1.935   1.992   7.608
 7699SOL     OW35155   2.199   2.901   8.508
 7699SOL    HW135156   2.166   2.839   8.579
 7699SOL    HW235157   2.218   2.991   8.548
 7700SOL     OW35158   3.500   2.921   7.603
 7700SOL    HW135159   3.589   2.963   7.620
 7700SOL    HW235160   3.485   2.913   7.504
 7701SOL     OW35161   3.019   2.919   9.083
 7701SOL    HW135162   2.938   2.862   9.093
 7701SOL    HW235163   3.100   2.869   9.114
 7702SOL     OW35164   2.918   2.118   7.992
 7702SOL    HW135165   2.887   2.212   8.003
 7702SOL    HW235166   2.884   2.063   8.068
 7703SOL     OW35167   3.046   3.614   9.003
 7703SOL    HW135168   2.974   3.639   8.938
 7703SOL    HW235169   3.076   3.696   9.051
 7704SOL     OW35170   2.474   1.940   8.232
 7704SOL    HW135171   2.410   1.876   8.191
 7704SOL    HW235172   2.548   1.890   8.275
 7705SOL     OW35173   2.156   3.676   8.668
 7705SOL    HW135174   2.138   3.615   8.591
 7705SOL    HW235175   2.073   3.686   8.723
 7706SOL     OW35176   2.815   3.019   8.219
 7706SOL    HW135177   2.842   3.102   8.170
 7706SOL    HW235178   2.891   2.989   8.277
 7707SOL     OW35179   1.864   2.838   8.504
 7707SOL    HW135180   1.927   2.786   8.446
 7707SOL    HW235181   1.770   2.814   8.480
 7708SOL     OW35182   2.144   1.883   7.853
 7708SOL    HW135183   2.188   1.973   7.854
 7708SOL    HW235184   2.047   1.893   7.875
 7709SOL     OW35185   2.552   2.498   9.076
 7709SOL    HW135186   2.481   2.554   9.031
 7709SOL    HW235187   2.637   2.506   9.025
 7710SOL     OW35188   1.931   2.922   7.650
 7710SOL    HW135189   1.951   2.826   7.628
 7710SOL    HW235190   1.978   2.982   7.585
 7711SOL     OW35191   3.546   2.115   8.233
 7711SOL    HW135192   3.536   2.130   8.332
 7711SOL    HW235193   3.619   2.049   8.217
 7712SOL     OW35194   2.697   3.154   8.437
 7712SOL    HW135195   2.724   3.091   8.364
 7712SOL    HW235196   2.719   3.248   8.410
 7713SOL     OW35197   3.066   2.453   7.687
 7713SOL    HW135198   3.098   2.540   7.724
 7713SOL    HW235199   3.027   2.468   7.596
 7714SOL     OW35200   3.387   3.296   9.055
 7714SOL    HW135201   3.347   3.216   9.100
 7714SOL    HW235202   3.318   3.339   8.997
 7715SOL     OW35203   2.134   2.725   8.717
 7715SOL    HW135204   2.214   2.670   8.743
 7715SOL    HW235205   2.093   2.764   8.800
 7716SOL     OW35206   2.678   3.350   7.415
 7716SOL    HW135207   2.630   3.404   7.484
 7716SOL    HW235208   2.735   3.281   7.460
 7717SOL     OW35209   2.490   3.516   8.463
 7717SOL    HW135210   2.484   3.489   8.367
 7717SOL    HW235211   2.487   3.434   8.520
 7718SOL     OW35212   2.591   2.946   8.068
 7718SOL    HW135213   2.662   2.979   8.131
 7718SOL    HW235214   2.563   2.854   8.094
 7719SOL     OW35215   2.773   3.329   7.881
 7719SOL    HW135216   2.843   3.341   7.811
 7719SOL    HW235217   2.714   3.252   7.856
 7720SOL     OW35218   1.995   2.693   8.310
 7720SOL    HW135219   2.081   2.653   8.278
 7720SOL    HW235220   1.947   2.734   8.232
 7721SOL     OW35221   1.912   2.737   9.182
 7721SOL    HW135222   1.813   2.749   9.177
 7721SOL    HW235223   1.936   2.697   9.270
 7722SOL     OW35224   2.832   3.657   8.821
 7722SOL    HW135225   2.793   3.599   8.892
 7722SOL    HW235226   2.763   3.723   8.790
 7723SOL     OW35227   3.023   2.968   8.391
 7723SOL    HW135228   3.047   3.065   8.402
 7723SOL    HW235229   2.997   2.930   8.480
 7724SOL     OW35230   2.387   2.729   7.728
 7724SOL    HW135231   2.361   2.819   7.693
 7724SOL    HW235232   2.308   2.686   7.772
 7725SOL     OW35233   3.414   2.783   8.391
 7725SOL    HW135234   3.448   2.857   8.334
 7725SOL    HW235235   3.387   2.819   8.481
 7726SOL     OW35236   3.180   2.129   8.762
 7726SOL    HW135237   3.267   2.118   8.811
 7726SOL    HW235238   3.135   2.040   8.752
 7727SOL     OW35239   1.878   1.940   7.881
 7727SOL    HW135240   1.784   1.907   7.878
 7727SOL    HW235241   1.879   2.038   7.861
 7728SOL     OW35242   3.181   1.960   9.110
 7728SOL    HW135243   3.211   1.935   9.202
 7728SOL    HW235244   3.114   2.034   9.115
 7729SOL     OW35245   2.294   3.439   8.994
 7729SOL    HW135246   2.234   3.492   9.053
 7729SOL    HW235247   2.333   3.498   8.923
 7730SOL     OW35248   3.620   3.339   8.916
 7730SOL    HW135249   3.663   3.425   8.944
 7730SOL    HW235250   3.539   3.323   8.973
 7731SOL     OW35251   2.878   2.349   8.442
 7731SOL    HW135252   2.943   2.401   8.497
 7731SOL    HW235253   2.922   2.266   8.408
 7732SOL     OW35254   2.301   3.337   8.046
 7732SOL    HW135255   2.308   3.238   8.054
 7732SOL    HW235256   2.205   3.364   8.057
 7733SOL     OW35257   2.965   3.416   8.581
 7733SOL    HW135258   2.899   3.464   8.638
 7733SOL    HW235259   3.042   3.477   8.561
 7734SOL     OW35260   2.139   3.606   9.161
 7734SOL    HW135261   2.166   3.702   9.153
 7734SOL    HW235262   2.143   3.578   9.257
 7735SOL     OW35263   1.980   3.117   8.993
 7735SOL    HW135264   1.951   3.028   8.957
 7735SOL    HW235265   1.911   3.186   8.971
 7736SOL     OW35266   2.059   3.504   8.464
 7736SOL    HW135267   2.041   3.408   8.484
 7736SOL    HW235268   2.109   3.512   8.378
 7737SOL     OW35269   2.822   2.040   8.238
 7737SOL    HW135270   2.906   2.076   8.278
 7737SOL    HW235271   2.777   1.978   8.303
 7738SOL     OW35272   2.928   3.063   7.775
 7738SOL    HW135273   3.014   3.090   7.818
 7738SOL    HW235274   2.892   2.982   7.820
 7739SOL     OW35275   3.444   2.337   8.117
 7739SOL    HW135276   3.472   2.413   8.176
 7739SOL    HW235277   3.479   2.251   8.153
 7740SOL     OW35278   2.619   2.981   7.598
 7740SOL    HW135279   2.693   3.042   7.570
 7740SOL    HW235280   2.633   2.890   7.558
 7741SOL     OW35281   2.648   1.961   7.525
 7741SOL    HW135282   2.728   1.901   7.533
 7741SOL    HW235283   2.673   2.054   7.550
 7742SOL     OW35284   2.395   2.377   8.143
 7742SOL    HW135285   2.445   2.294   8.165
 7742SOL    HW235286   2.442   2.426   8.070
 7743SOL     OW35287   3.635   2.994   8.721
 7743SOL    HW135288   3.596   3.082   8.692
 7743SOL    HW235289   3.678   2.948   8.644
 7744SOL     OW35290   2.054   3.089   7.475
 7744SOL    HW135291   2.021   3.103   7.382
 7744SOL    HW235292   2.129   3.152   7.494
 7745SOL     OW35293   2.516   3.479   7.588
 7745SOL    HW135294   2.463   3.562   7.570
 7745SOL    HW235295   2.479   3.433   7.669
 7746SOL     OW35296   3.194   2.974   8.869
 7746SOL    HW135297   3.134   2.932   8.936
 7746SOL    HW235298   3.163   3.068   8.851
 7747SOL     OW35299   2.397   3.609   8.800
 7747SOL    HW135300   2.462   3.684   8.788
 7747SOL    HW235301   2.315   3.628   8.747
 7748SOL     OW35302   3.437   3.424   8.459
 7748SOL    HW135303   3.495   3.504   8.476
 7748SOL    HW235304   3.470   3.348   8.514
 7749SOL     OW35305   1.839   2.804   8.088
 7749SOL    HW135306   1.862   2.883   8.031
 7749SOL    HW235307   1.740   2.799   8.100
 7750SOL     OW35308   2.377   2.657   8.941
 7750SOL    HW135309   2.395   2.630   8.846
 7750SOL    HW235310   2.353   2.754   8.944
 7751SOL     OW35311   3.478   2.973   8.197
 7751SOL    HW135312   3.450   3.056   8.151
 7751SOL    HW235313   3.447   2.893   8.145
 7752SOL     OW35314   2.593   2.330   8.421
 7752SOL    HW135315   2.692   2.336   8.430
 7752SOL    HW235316   2.556   2.421   8.402
 7753SOL     OW35317   2.489   3.263   8.590
 7753SOL    HW135318   2.401   3.216   8.592
 7753SOL    HW235319   2.554   3.209   8.536
 7754SOL     OW35320   1.996   2.551   8.552
 7754SOL    HW135321   2.026   2.620   8.618
 7754SOL    HW235322   1.990   2.593   8.461
 7755SOL     OW35323   2.223   3.184   8.891
 7755SOL    HW135324   2.257   3.272   8.924
 7755SOL    HW235325   2.133   3.166   8.931
 7756SOL     OW35326   3.473   3.534   9.159
 7756SOL    HW135327   3.440   3.444   9.132
 7756SOL    HW235328   3.441   3.602   9.094
 7757SOL     OW35329   3.182   3.121   7.876
 7757SOL    HW135330   3.262   3.134   7.935
 7757SOL    HW235331   3.212   3.102   7.783
 7758SOL     OW35332   2.513   2.202   7.861
 7758SOL    HW135333   2.416   2.180   7.854
 7758SOL    HW235334   2.545   2.187   7.954
 7759SOL     OW35335   2.993   2.633   8.776
 7759SOL    HW135336   3.092   2.618   8.768
 7759SOL    HW235337   2.965   2.701   8.709
 7760SOL     OW35338   2.522   2.685   8.139
 7760SOL    HW135339   2.519   2.642   8.229
 7760SOL    HW235340   2.546   2.616   8.070
 7761SOL     OW35341   3.073   3.237   8.407
 7761SOL    HW135342   3.019   3.292   8.470
 7761SOL    HW235343   3.091   3.289   8.324
 7762SOL     OW35344   3.165   2.327   8.112
 7762SOL    HW135345   3.149   2.304   8.016
 7762SOL    HW235346   3.263   2.336   8.127
 7763SOL     OW35347   2.917   3.251   0.010
 7763SOL    HW135348   3.005   3.206   9.999
 7763SOL    HW235349   2.880   3.275   9.920
 7764SOL     OW35350   3.445   3.056   9.865
 7764SOL    HW135351   3.492   3.120   9.925
 7764SOL    HW235352   3.508   3.020   9.797
 7765SOL     OW35353   2.417   3.331   9.590
 7765SOL    HW135354   2.370   3.360   9.673
 7765SOL    HW235355   2.490   3.267   9.613
 7766SOL     OW35356   2.451   1.909   9.347
 7766SOL    HW135357   2.546   1.937   9.362
 7766SOL    HW235358   2.412   1.961   9.271
 7767SOL     OW35359   2.291   3.095   9.865
 7767SOL    HW135360   2.221   3.073   9.933
 7767SOL    HW235361   2.375   3.045   9.886
 7768SOL     OW35362   2.650   2.438   9.743
 7768SOL    HW135363   2.649   2.534   9.713
 7768SOL    HW235364   2.664   2.379   9.664
 7769SOL     OW35365   2.284   3.228   9.368
 7769SOL    HW135366   2.340   3.250   9.289
 7769SOL    HW235367   2.321   3.273   9.449
 7770SOL     OW35368   2.144   2.622   9.665
 7770SOL    HW135369   2.120   2.539   9.715
 7770SOL    HW235370   2.090   2.698   9.699
 7771SOL     OW35371   2.803   3.575   9.843
 7771SOL    HW135372   2.809   3.479   9.816
 7771SOL    HW235373   2.738   3.623   9.784
 7772SOL     OW35374   3.588   3.447   9.612
 7772SOL    HW135375   3.681   3.419   9.589
 7772SOL    HW235376   3.549   3.499   9.537
 7773SOL     OW35377   2.942   2.176   9.657
 7773SOL    HW135378   3.026   2.230   9.667
 7773SOL    HW235379   2.936   2.110   9.731
 7774SOL     OW35380   2.382   2.491   9.293
 7774SOL    HW135381   2.352   2.587   9.288
 7774SOL    HW235382   2.450   2.474   9.222
 7775SOL     OW35383   3.637   3.228   0.014
 7775SOL    HW135384   3.623   3.249   0.111
 7775SOL    HW235385   3.638   3.313   9.961
 7776SOL     OW35386   2.145   3.153   9.641
 7776SOL    HW135387   2.203   3.134   9.720
 7776SOL    HW235388   2.178   3.103   9.561
 7777SOL     OW35389   3.045   2.071   9.421
 7777SOL    HW135390   3.118   2.007   9.445
 7777SOL    HW235391   3.005   2.108   9.505
 7778SOL     OW35392   2.283   2.167   9.682
 7778SOL    HW135393   2.272   2.246   9.621
 7778SOL    HW235394   2.220   2.094   9.654
 7779SOL     OW35395   3.770   3.657   0.230
 7779SOL    HW135396   3.758   3.696   0.321
 7779SOL    HW235397   3.855   3.605   0.227
 7780SOL     OW35398   2.808   2.340   9.942
 7780SOL    HW135399   2.882   2.404   9.962
 7780SOL    HW235400   2.752   2.377   9.867
 7781SOL     OW35401   3.102   2.822   9.399
 7781SOL    HW135402   3.108   2.790   9.494
 7781SOL    HW235403   3.057   2.752   9.344
 7782SOL     OW35404   3.595   2.527   9.538
 7782SOL    HW135405   3.555   2.445   9.498
 7782SOL    HW235406   3.642   2.504   9.624
 7783SOL     OW35407   2.854   3.625   9.379
 7783SOL    HW135408   2.895   3.570   9.307
 7783SOL    HW235409   2.867   3.580   9.468
 7784SOL     OW35410   1.919   2.493   9.783
 7784SOL    HW135411   1.897   2.460   9.875
 7784SOL    HW235412   1.927   2.592   9.784
 7785SOL     OW35413   2.044   3.404   9.580
 7785SOL    HW135414   2.082   3.313   9.593
 7785SOL    HW235415   2.101   3.456   9.516
 7786SOL     OW35416   2.055   3.480   9.849
 7786SOL    HW135417   1.963   3.459   9.882
 7786SOL    HW235418   2.056   3.474   9.749
 7787SOL     OW35419   2.332   2.762   9.270
 7787SOL    HW135420   2.296   2.790   9.181
 7787SOL    HW235421   2.323   2.838   9.334
 7788SOL     OW35422   1.957   2.653   9.440
 7788SOL    HW135423   2.036   2.627   9.495
 7788SOL    HW235424   1.876   2.607   9.475
 7789SOL     OW35425   3.426   2.735   9.612
 7789SOL    HW135426   3.479   2.655   9.584
 7789SOL    HW235427   3.450   2.813   9.554
 7790SOL     OW35428   2.609   2.745   9.307
 7790SOL    HW135429   2.636   2.655   9.342
 7790SOL    HW235430   2.511   2.745   9.287
 7791SOL     OW35431   3.208   2.266   9.638
 7791SOL    HW135432   3.173   2.347   9.591
 7791SOL    HW235433   3.307   2.258   9.621
 7792SOL     OW35434   3.473   2.187   9.584
 7792SOL    HW135435   3.568   2.214   9.598
 7792SOL    HW235436   3.458   2.097   9.626
 7793SOL     OW35437   2.712   2.257   9.537
 7793SOL    HW135438   2.642   2.196   9.574
 7793SOL    HW235439   2.801   2.233   9.576
 7794SOL     OW35440   2.818   3.155   9.370
 7794SOL    HW135441   2.874   3.132   9.449
 7794SOL    HW235442   2.876   3.159   9.288
 7795SOL     OW35443   3.635   3.466   9.880
 7795SOL    HW135444   3.584   3.543   9.917
 7795SOL    HW235445   3.613   3.454   9.784
 7796SOL     OW35446   3.010   2.804   9.884
 7796SOL    HW135447   3.063   2.887   9.901
 7796SOL    HW235448   2.923   2.827   9.841
 7797SOL     OW35449   3.349   2.837   0.019
 7797SOL    HW135450   3.258   2.833   0.059
 7797SOL    HW235451   3.359   2.922   9.967
 7798SOL     OW35452   2.776   2.883   9.768
 7798SOL    HW135453   2.732   2.811   9.714
 7798SOL    HW235454   2.707   2.931   9.822
 7799SOL     OW35455   1.906   2.249   9.648
 7799SOL    HW135456   1.953   2.258   9.561
 7799SOL    HW235457   1.926   2.329   9.705
 7800SOL     OW35458   3.476   3.625   9.417
 7800SOL    HW135459   3.556   3.684   9.404
 7800SOL    HW235460   3.457   3.575   9.333
 7801SOL     OW35461   2.647   2.686   9.629
 7801SOL    HW135462   2.550   2.711   9.620
 7801SOL    HW235463   2.677   2.639   9.547
 7802SOL     OW35464   2.174   3.614   9.440
 7802SOL    HW135465   2.262   3.650   9.410
 7802SOL    HW235466   2.151   3.653   9.530
 7803SOL     OW35467   2.679   1.850   9.651
 7803SOL    HW135468   2.638   1.789   9.583
 7803SOL    HW235469   2.628   1.935   9.656
 7804SOL     OW35470   1.899   3.024   9.687
 7804SOL    HW135471   1.971   3.093   9.698
 7804SOL    HW235472   1.898   2.992   9.592
 7805SOL     OW35473   3.277   1.885   9.363
 7805SOL    HW135474   3.371   1.863   9.386
 7805SOL    HW235475   3.219   1.806   9.383
 7806SOL     OW35476   2.621   2.138   9.941
 7806SOL    HW135477   2.626   2.073   0.016
 7806SOL    HW235478   2.698   2.203   9.946
 7807SOL     OW35479   3.455   1.924   9.680
 7807SOL    HW135480   3.475   1.863   9.603
 7807SOL    HW235481   3.356   1.936   9.688
 7808SOL     OW35482   3.150   2.716   9.650
 7808SOL    HW135483   3.111   2.750   9.735
 7808SOL    HW235484   3.250   2.730   9.651
 7809SOL     OW35485   3.512   2.683   9.864
 7809SOL    HW135486   3.473   2.704   9.774
 7809SOL    HW235487   3.457   2.728   9.935
 7810SOL     OW35488   3.426   2.125   9.320
 7810SOL    HW135489   3.449   2.156   9.412
 7810SOL    HW235490   3.356   2.054   9.326
 7811SOL     OW35491   2.263   2.398   9.517
 7811SOL    HW135492   2.317   2.419   9.436
 7811SOL    HW235493   2.249   2.482   9.570
 7812SOL     OW35494   2.272   3.654   9.907
 7812SOL    HW135495   2.181   3.612   9.910
 7812SOL    HW235496   2.339   3.586   9.876
 7813SOL     OW35497   2.601   3.147   9.679
 7813SOL    HW135498   2.614   3.082   9.604
 7813SOL    HW235499   2.582   3.097   9.763
 7814SOL     OW35500   2.033   2.286   9.418
 7814SOL    HW135501   2.016   2.291   9.320
 7814SOL    HW235502   2.122   2.327   9.439
 7815SOL     OW35503   1.860   2.429   0.038
 7815SOL    HW135504   1.854   2.520   0.079
 7815SOL    HW235505   1.916   2.370   0.097
 7816SOL     OW35506   2.349   2.975   9.451
 7816SOL    HW135507   2.449   2.981   9.457
 7816SOL    HW235508   2.314   3.059   9.409
 7817SOL     OW35509   2.976   2.576   9.283
 7817SOL    HW135510   2.924   2.639   9.226
 7817SOL    HW235511   3.026   2.511   9.224
 7818SOL     OW35512   2.730   2.521   9.421
 7818SOL    HW135513   2.821   2.531   9.380
 7818SOL    HW235514   2.714   2.424   9.444
 7819SOL     OW35515   3.197   1.996   9.693
 7819SOL    HW135516   3.119   1.975   9.753
 7819SOL    HW235517   3.199   2.094   9.675
 7820SOL     OW35518   1.917   1.917   9.378
 7820SOL    HW135519   2.013   1.891   9.369
 7820SOL    HW235520   1.900   1.951   9.470
 7821SOL     OW35521   3.521   2.903   9.419
 7821SOL    HW135522   3.614   2.939   9.418
 7821SOL    HW235523   3.494   2.878   9.326
 7822SOL     OW35524   2.971   1.977   9.853
 7822SOL    HW135525   2.972   2.000   9.950
 7822SOL    HW235526   2.922   1.890   9.839
 7823SOL     OW35527   2.130   1.929   9.661
 7823SOL    HW135528   2.154   1.883   9.747
 7823SOL    HW235529   2.031   1.942   9.657
 7824SOL     OW35530   1.940   2.931   9.435
 7824SOL    HW135531   1.958   2.833   9.428
 7824SOL    HW235532   1.992   2.979   9.366
 7825SOL     OW35533   3.631   1.972   0.161
 7825SOL    HW135534   3.642   2.044   0.230
 7825SOL    HW235535   3.721   1.933   0.139
 7826SOL     OW35536   3.104   2.484   9.515
 7826SOL    HW135537   3.119   2.565   9.571
 7826SOL    HW235538   3.056   2.509   9.431
 7827SOL     OW35539   2.680   3.379   9.265
 7827SOL    HW135540   2.650   3.442   9.337
 7827SOL    HW235541   2.733   3.305   9.306
 7828SOL     OW35542   2.566   3.011   9.923
 7828SOL    HW135543   2.574   3.092   9.982
 7828SOL    HW235544   2.573   2.928   9.979
 7829SOL     OW35545   2.815   3.314   9.758
 7829SOL    HW135546   2.877   3.330   9.681
 7829SOL    HW235547   2.739   3.257   9.729
 7830SOL     OW35548   2.384   2.750   9.609
 7830SOL    HW135549   2.362   2.833   9.558
 7830SOL    HW235550   2.300   2.702   9.633
 7831SOL     OW35551   1.865   1.981   9.640
 7831SOL    HW135552   1.772   1.952   9.663
 7831SOL    HW235553   1.874   2.080   9.655
 7832SOL     OW35554   2.305   3.372   9.836
 7832SOL    HW135555   2.310   3.274   9.857
 7832SOL    HW235556   2.212   3.404   9.851
 7833SOL     OW35557   2.932   3.057   9.606
 7833SOL    HW135558   3.022   3.061   9.651
 7833SOL    HW235559   2.872   2.996   9.658
 7834SOL     OW35560   2.622   2.985   9.452
 7834SOL    HW135561   2.694   3.046   9.420
 7834SOL    HW235562   2.635   2.894   9.412
 7835SOL     OW35563   2.718   1.985   9.350
 7835SOL    HW135564   2.780   1.909   9.371
 7835SOL    HW235565   2.741   2.063   9.408
 7836SOL     OW35566   2.465   2.375   9.938
 7836SOL    HW135567   2.492   2.281   9.957
 7836SOL    HW235568   2.520   2.411   9.863
 7837SOL     OW35569   2.082   3.070   9.252
 7837SOL    HW135570   2.048   3.094   9.161
 7837SOL    HW235571   2.146   3.141   9.283
 7838SOL     OW35572   2.548   3.529   9.456
 7838SOL    HW135573   2.486   3.595   9.414
 7838SOL    HW235574   2.495   3.460   9.505
 7839SOL     OW35575   1.940   2.772   9.790
 7839SOL    HW135576   1.938   2.865   9.755
 7839SOL    HW235577   1.856   2.753   9.841
 7840SOL     OW35578   3.190   3.043   9.723
 7840SOL    HW135579   3.270   3.058   9.781
 7840SOL    HW235580   3.219   3.044   9.627
 7841SOL     OW35581   2.546   2.092   9.682
 7841SOL    HW135582   2.450   2.116   9.674
 7841SOL    HW235583   2.576   2.104   9.777
 7842SOL     OW35584   3.487   1.839   9.958
 7842SOL    HW135585   3.472   1.882   9.869
 7842SOL    HW235586   3.535   1.903   0.018
 7843SOL     OW35587   3.462   4.979   0.583
 7843SOL    HW135588   3.484   5.043   0.657
 7843SOL    HW235589   3.546   4.936   0.550
 7844SOL     OW35590   3.466   4.341   1.379
 7844SOL    HW135591   3.403   4.285   1.432
 7844SOL    HW235592   3.519   4.400   1.441
 7845SOL     OW35593   2.219   3.926   9.901
 7845SOL    HW135594   2.242   3.831   9.922
 7845SOL    HW235595   2.228   3.982   9.983
 7846SOL     OW35596   3.019   3.753   1.304
 7846SOL    HW135597   2.947   3.707   1.357
 7846SOL    HW235598   3.070   3.685   1.251
 7847SOL     OW35599   2.792   4.609   1.746
 7847SOL    HW135600   2.742   4.628   1.662
 7847SOL    HW235601   2.731   4.620   1.824
 7848SOL     OW35602   2.393   5.204   0.346
 7848SOL    HW135603   2.357   5.140   0.414
 7848SOL    HW235604   2.483   5.235   0.375
 7849SOL     OW35605   2.486   3.694   0.105
 7849SOL    HW135606   2.568   3.750   0.094
 7849SOL    HW235607   2.424   3.711   0.029
 7850SOL     OW35608   3.437   4.748   1.532
 7850SOL    HW135609   3.344   4.781   1.512
 7850SOL    HW235610   3.498   4.776   1.458
 7851SOL     OW35611   3.296   4.756   1.220
 7851SOL    HW135612   3.252   4.773   1.309
 7851SOL    HW235613   3.350   4.835   1.194
 7852SOL     OW35614   2.837   5.079   1.454
 7852SOL    HW135615   2.755   5.135   1.448
 7852SOL    HW235616   2.819   4.990   1.412
 7853SOL     OW35617   2.624   4.344   0.539
 7853SOL    HW135618   2.630   4.436   0.499
 7853SOL    HW235619   2.631   4.276   0.466
 7854SOL     OW35620   3.101   4.220   1.739
 7854SOL    HW135621   3.194   4.200   1.772
 7854SOL    HW235622   3.044   4.139   1.749
 7855SOL     OW35623   2.282   5.081   0.128
 7855SOL    HW135624   2.299   5.132   0.043
 7855SOL    HW235625   2.326   5.128   0.204
 7856SOL     OW35626   2.470   3.994   1.073
 7856SOL    HW135627   2.524   4.074   1.052
 7856SOL    HW235628   2.508   3.914   1.026
 7857SOL     OW35629   2.156   4.458   0.443
 7857SOL    HW135630   2.195   4.427   0.530
 7857SOL    HW235631   2.079   4.519   0.461
 7858SOL     OW35632   2.631   5.329   0.393
 7858SOL    HW135633   2.729   5.318   0.379
 7858SOL    HW235634   2.612   5.421   0.427
 7859SOL     OW35635   3.643   5.246   0.402
 7859SOL    HW135636   3.741   5.228   0.390
 7859SOL    HW235637   3.612   5.311   0.332
 7860SOL     OW35638   3.526   4.009   1.126
 7860SOL    HW135639   3.565   4.100   1.138
 7860SOL    HW235640   3.427   4.013   1.134
 7861SOL     OW35641   2.891   4.001   0.303
 7861SOL    HW135642   2.952   4.080   0.309
 7861SOL    HW235643   2.899   3.946   0.387
 7862SOL     OW35644   2.012   4.712   1.598
 7862SOL    HW135645   2.106   4.732   1.624
 7862SOL    HW235646   1.962   4.678   1.678
 7863SOL     OW35647   2.278   4.383   0.022
 7863SOL    HW135648   2.318   4.475   0.021
 7863SOL    HW235649   2.347   4.316   9.992
 7864SOL     OW35650   2.825   4.317   1.550
 7864SOL    HW135651   2.862   4.245   1.609
 7864SOL    HW235652   2.900   4.359   1.498
 7865SOL     OW35653   3.521   5.127   0.812
 7865SOL    HW135654   3.502   5.162   0.904
 7865SOL    HW235655   3.573   5.195   0.761
 7866SOL     OW35656   2.232   4.982   0.449
 7866SOL    HW135657   2.154   4.942   0.496
 7866SOL    HW235658   2.275   4.913   0.391
 7867SOL     OW35659   3.028   3.887   0.075
 7867SOL    HW135660   3.115   3.860   0.118
 7867SOL    HW235661   2.972   3.937   0.142
 7868SOL     OW35662   2.269   4.228   1.219
 7868SOL    HW135663   2.263   4.129   1.226
 7868SOL    HW235664   2.212   4.271   1.288
 7869SOL     OW35665   3.261   4.482   1.266
 7869SOL    HW135666   3.281   4.579   1.252
 7869SOL    HW235667   3.342   4.437   1.304
 7870SOL     OW35668   2.251   4.106   0.455
 7870SOL    HW135669   2.195   4.094   0.537
 7870SOL    HW235670   2.204   4.168   0.393
 7871SOL     OW35671   3.385   5.458   1.308
 7871SOL    HW135672   3.312   5.492   1.248
 7871SOL    HW235673   3.471   5.456   1.258
 7872SOL     OW35674   3.621   4.259   1.172
 7872SOL    HW135675   3.710   4.304   1.174
 7872SOL    HW235676   3.566   4.290   1.250
 7873SOL     OW35677   3.639   5.444   1.184
 7873SOL    HW135678   3.674   5.474   1.272
 7873SOL    HW235679   3.715   5.427   1.121
 7874SOL     OW35680   2.762   4.143   0.681
 7874SOL    HW135681   2.845   4.163   0.733
 7874SOL    HW235682   2.737   4.222   0.626
 7875SOL     OW35683   3.056   4.673   0.197
 7875SOL    HW135684   3.083   4.597   0.256
 7875SOL    HW235685   2.956   4.675   0.190
 7876SOL     OW35686   2.931   4.000   1.766
 7876SOL    HW135687   2.969   3.978   1.856
 7876SOL    HW235688   2.843   3.953   1.755
 7877SOL     OW35689   3.583   4.374   0.396
 7877SOL    HW135690   3.538   4.285   0.407
 7877SOL    HW235691   3.650   4.387   0.469
 7878SOL     OW35692   2.815   5.497   0.112
 7878SOL    HW135693   2.814   5.464   0.018
 7878SOL    HW235694   2.853   5.426   0.172
 7879SOL     OW35695   2.689   3.799   1.747
 7879SOL    HW135696   2.683   3.704   1.717
 7879SOL    HW235697   2.671   3.805   1.846
 7880SOL     OW35698   3.562   4.358   0.925
 7880SOL    HW135699   3.530   4.452   0.935
 7880SOL    HW235700   3.576   4.317   1.015
 7881SOL     OW35701   2.955   5.029   1.709
 7881SOL    HW135702   2.995   4.938   1.700
 7881SOL    HW235703   2.905   5.052   1.626
 7882SOL     OW35704   2.597   4.893   1.732
 7882SOL    HW135705   2.519   4.955   1.741
 7882SOL    HW235706   2.663   4.911   1.805
 7883SOL     OW35707   3.251   3.655   0.901
 7883SOL    HW135708   3.208   3.745   0.905
 7883SOL    HW235709   3.340   3.661   0.856
 7884SOL     OW35710   3.598   3.929   1.819
 7884SOL    HW135711   3.536   3.965   1.889
 7884SOL    HW235712   3.659   3.861   1.860
 7885SOL     OW35713   2.288   3.910   0.834
 7885SOL    HW135714   2.275   3.984   0.899
 7885SOL    HW235715   2.379   3.916   0.794
 7886SOL     OW35716   2.250   3.947   1.239
 7886SOL    HW135717   2.215   3.853   1.236
 7886SOL    HW235718   2.330   3.954   1.178
 7887SOL     OW35719   2.904   4.468   0.908
 7887SOL    HW135720   2.812   4.477   0.871
 7887SOL    HW235721   2.941   4.378   0.884
 7888SOL     OW35722   2.041   5.137   0.323
 7888SOL    HW135723   2.115   5.086   0.367
 7888SOL    HW235724   2.069   5.233   0.312
 7889SOL     OW35725   3.339   5.047   1.226
 7889SOL    HW135726   3.353   5.114   1.153
 7889SOL    HW235727   3.250   5.061   1.269
 7890SOL     OW35728   3.607   5.080   1.282
 7890SOL    HW135729   3.630   5.112   1.374
 7890SOL    HW235730   3.508   5.063   1.277
 7891SOL     OW35731   2.373   4.644   0.012
 7891SOL    HW135732   2.334   4.695   9.934
 7891SOL    HW235733   2.356   4.695   0.096
 7892SOL     OW35734   2.807   4.832   1.333
 7892SOL    HW135735   2.886   4.773   1.315
 7892SOL    HW235736   2.748   4.833   1.253
 7893SOL     OW35737   3.397   4.580   0.396
 7893SOL    HW135738   3.464   4.505   0.400
 7893SOL    HW235739   3.421   4.642   0.321
 7894SOL     OW35740   2.647   4.584   9.994
 7894SOL    HW135741   2.673   4.507   0.052
 7894SOL    HW235742   2.549   4.599  10.000
 7895SOL     OW35743   3.217   4.108   0.466
 7895SOL    HW135744   3.162   4.155   0.396
 7895SOL    HW235745   3.313   4.133   0.454
 7896SOL     OW35746   2.124   4.295   1.499
 7896SOL    HW135747   2.100   4.203   1.470
 7896SOL    HW235748   2.104   4.306   1.597
 7897SOL     OW35749   2.062   4.037   1.431
 7897SOL    HW135750   2.127   3.998   1.366
 7897SOL    HW235751   1.970   4.004   1.409
 7898SOL     OW35752   2.883   4.560   1.174
 7898SOL    HW135753   2.881   4.521   1.082
 7898SOL    HW235754   2.799   4.536   1.222
 7899SOL     OW35755   3.499   4.119   0.480
 7899SOL    HW135756   3.591   4.089   0.459
 7899SOL    HW235757   3.490   4.133   0.579
 7900SOL     OW35758   2.660   4.155   0.338
 7900SOL    HW135759   2.588   4.094   0.368
 7900SOL    HW235760   2.744   4.103   0.323
 7901SOL     OW35761   2.802   5.008   0.205
 7901SOL    HW135762   2.850   5.002   0.292
 7901SOL    HW235763   2.865   5.040   0.134
 7902SOL     OW35764   3.649   5.320   0.666
 7902SOL    HW135765   3.615   5.414   0.674
 7902SOL    HW235766   3.636   5.288   0.572
 7903SOL     OW35767   3.018   4.608   0.564
 7903SOL    HW135768   3.056   4.625   0.655
 7903SOL    HW235769   2.934   4.660   0.553
 7904SOL     OW35770   2.699   5.357   1.629
 7904SOL    HW135771   2.652   5.302   1.560
 7904SOL    HW235772   2.700   5.307   1.716
 7905SOL     OW35773   3.113   4.630   0.821
 7905SOL    HW135774   3.040   4.565   0.844
 7905SOL    HW235775   3.126   4.695   0.895
 7906SOL     OW35776   2.782   4.740   0.529
 7906SOL    HW135777   2.732   4.679   0.468
 7906SOL    HW235778   2.734   4.745   0.617
 7907SOL     OW35779   3.100   5.091   1.374
 7907SOL    HW135780   3.148   5.166   1.418
 7907SOL    HW235781   3.006   5.088   1.407
 7908SOL     OW35782   3.560   5.431   0.205
 7908SOL    HW135783   3.658   5.450   0.201
 7908SOL    HW235784   3.519   5.451   0.117
 7909SOL     OW35785   2.688   4.488   1.373
 7909SOL    HW135786   2.668   4.568   1.430
 7909SOL    HW235787   2.732   4.418   1.429
 7910SOL     OW35788   1.934   5.537   1.409
 7910SOL    HW135789   1.883   5.623   1.414
 7910SOL    HW235790   1.921   5.486   1.494
 7911SOL     OW35791   2.650   4.569   0.356
 7911SOL    HW135792   2.550   4.570   0.352
 7911SOL    HW235793   2.685   4.504   0.288
 7912SOL     OW35794   2.247   4.180   0.933
 7912SOL    HW135795   2.328   4.205   0.880
 7912SOL    HW235796   2.260   4.207   1.028
 7913SOL     OW35797   2.105   5.401   0.294
 7913SOL    HW135798   2.190   5.403   0.242
 7913SOL    HW235799   2.114   5.462   0.373
 7914SOL     OW35800   3.166   5.528   1.153
 7914SOL    HW135801   3.161   5.550   1.055
 7914SOL    HW235802   3.102   5.454   1.173
 7915SOL     OW35803   2.526   3.712   0.379
 7915SOL    HW135804   2.504   3.708   0.282
 7915SOL    HW235805   2.510   3.804   0.414
 7916SOL     OW35806   1.966   4.899   0.510
 7916SOL    HW135807   1.914   4.976   0.546
 7916SOL    HW235808   1.939   4.882   0.415
 7917SOL     OW35809   3.465   3.987   1.576
 7917SOL    HW135810   3.406   4.067   1.572
 7917SOL    HW235811   3.505   3.980   1.667
 7918SOL     OW35812   3.164   3.917   0.926
 7918SOL    HW135813   3.187   3.982   0.854
 7918SOL    HW235814   3.196   3.952   1.014
 7919SOL     OW35815   3.228   3.782   0.238
 7919SOL    HW135816   3.195   3.690   0.215
 7919SOL    HW235817   3.204   3.803   0.333
 7920SOL     OW35818   3.446   3.710   1.567
 7920SOL    HW135819   3.425   3.674   1.476
 7920SOL    HW235820   3.445   3.810   1.564
 7921SOL     OW35821   2.560   3.970   0.732
 7921SOL    HW135822   2.578   3.899   0.800
 7921SOL    HW235823   2.643   4.022   0.714
 7922SOL     OW35824   3.152   4.294   1.102
 7922SOL    HW135825   3.165   4.327   1.009
 7922SOL    HW235826   3.186   4.362   1.167
 7923SOL     OW35827   3.440   3.729   0.482
 7923SOL    HW135828   3.450   3.683   0.393
 7923SOL    HW235829   3.347   3.764   0.491
 7924SOL     OW35830   2.426   5.115   1.789
 7924SOL    HW135831   2.378   5.172   1.722
 7924SOL    HW235832   2.514   5.157   1.812
 7925SOL     OW35833   2.273   4.774   1.643
 7925SOL    HW135834   2.319   4.730   1.566
 7925SOL    HW235835   2.264   4.872   1.625
 7926SOL     OW35836   2.980   4.215   0.840
 7926SOL    HW135837   3.065   4.175   0.806
 7926SOL    HW235838   2.953   4.169   0.925
 7927SOL     OW35839   3.589   4.307   1.726
 7927SOL    HW135840   3.583   4.382   1.660
 7927SOL    HW235841   3.685   4.293   1.752
 7928SOL     OW35842   3.252   4.042   1.158
 7928SOL    HW135843   3.220   4.135   1.144
 7928SOL    HW235844   3.228   4.012   1.251
 7929SOL     OW35845   3.362   4.165   1.811
 7929SOL    HW135846   3.442   4.217   1.780
 7929SOL    HW235847   3.385   4.115   1.895
 7930SOL     OW35848   3.144   4.478   0.369
 7930SOL    HW135849   3.093   4.517   0.446
 7930SOL    HW235850   3.240   4.506   0.375
 7931SOL     OW35851   3.370   4.663   0.676
 7931SOL    HW135852   3.363   4.648   0.578
 7931SOL    HW235853   3.282   4.645   0.719
 7932SOL     OW35854   3.597   4.518   1.538
 7932SOL    HW135855   3.535   4.596   1.530
 7932SOL    HW235856   3.690   4.551   1.550
 7933SOL     OW35857   3.436   3.966   0.244
 7933SOL    HW135858   3.444   4.007   0.335
 7933SOL    HW235859   3.360   3.902   0.243
 7934SOL     OW35860   2.589   5.234   1.411
 7934SOL    HW135861   2.518   5.304   1.405
 7934SOL    HW235862   2.570   5.161   1.345
 7935SOL     OW35863   2.019   4.006   1.708
 7935SOL    HW135864   2.030   4.009   1.608
 7935SOL    HW235865   1.925   3.980   1.729
 7936SOL     OW35866   1.910   5.394   1.644
 7936SOL    HW135867   1.994   5.408   1.696
 7936SOL    HW235868   1.831   5.400   1.705
 7937SOL     OW35869   2.114   4.070   0.691
 7937SOL    HW135870   2.120   4.144   0.759
 7937SOL    HW235871   2.161   3.989   0.726
 7938SOL     OW35872   3.238   5.296   1.482
 7938SOL    HW135873   3.174   5.358   1.526
 7938SOL    HW235874   3.298   5.347   1.420
 7939SOL     OW35875   2.082   4.338   0.205
 7939SOL    HW135876   2.155   4.351   0.138
 7939SOL    HW235877   2.109   4.379   0.292
 7940SOL     OW35878   3.643   3.943   1.373
 7940SOL    HW135879   3.574   3.964   1.442
 7940SOL    HW235880   3.604   3.955   1.282
 7941SOL     OW35881   2.338   5.559   0.667
 7941SOL    HW135882   2.255   5.542   0.613
 7941SOL    HW235883   2.418   5.555   0.608
 7942SOL     OW35884   2.984   5.312   1.810
 7942SOL    HW135885   2.974   5.215   1.788
 7942SOL    HW235886   3.012   5.362   1.728
 7943SOL     OW35887   2.247   4.407   0.692
 7943SOL    HW135888   2.235   4.455   0.780
 7943SOL    HW235889   2.311   4.331   0.704
 7944SOL     OW35890   2.341   4.833   0.230
 7944SOL    HW135891   2.441   4.833   0.231
 7944SOL    HW235892   2.309   4.919   0.188
 7945SOL     OW35893   2.983   4.321   0.017
 7945SOL    HW135894   2.984   4.408   9.967
 7945SOL    HW235895   3.057   4.263   9.984
 7946SOL     OW35896   2.739   4.381   0.171
 7946SOL    HW135897   2.824   4.356   0.125
 7946SOL    HW235898   2.700   4.300   0.215
 7947SOL     OW35899   3.184   3.841   0.496
 7947SOL    HW135900   3.088   3.822   0.519
 7947SOL    HW235901   3.199   3.939   0.495
 7948SOL     OW35902   3.274   4.193   1.506
 7948SOL    HW135903   3.214   4.232   1.576
 7948SOL    HW235904   3.227   4.116   1.462
 7949SOL     OW35905   3.502   4.714   0.177
 7949SOL    HW135906   3.594   4.743   0.202
 7949SOL    HW235907   3.502   4.682   0.082
 7950SOL     OW35908   2.499   4.391   1.187
 7950SOL    HW135909   2.546   4.418   1.271
 7950SOL    HW235910   2.417   4.338   1.211
 7951SOL     OW35911   2.650   4.723   1.528
 7951SOL    HW135912   2.711   4.771   1.465
 7951SOL    HW235913   2.625   4.783   1.603
 7952SOL     OW35914   3.014   4.752   1.660
 7952SOL    HW135915   2.931   4.708   1.693
 7952SOL    HW235916   3.094   4.697   1.684
 7953SOL     OW35917   2.911   3.836   0.531
 7953SOL    HW135918   2.908   3.864   0.627
 7953SOL    HW235919   2.854   3.756   0.517
 7954SOL     OW35920   3.052   5.467   1.586
 7954SOL    HW135921   2.969   5.485   1.533
 7954SOL    HW235922   3.088   5.553   1.621
 7955SOL     OW35923   2.574   3.783   0.930
 7955SOL    HW135924   2.503   3.713   0.924
 7955SOL    HW235925   2.664   3.739   0.938
 7956SOL     OW35926   2.166   5.557   1.264
 7956SOL    HW135927   2.134   5.545   1.170
 7956SOL    HW235928   2.090   5.545   1.327
 7957SOL     OW35929   2.858   4.870   0.933
 7957SOL    HW135930   2.892   4.945   0.876
 7957SOL    HW235931   2.935   4.828   0.981
 7958SOL     OW35932   2.556   4.589   1.003
 7958SOL    HW135933   2.589   4.532   0.927
 7958SOL    HW235934   2.521   4.530   1.076
 7959SOL     OW35935   2.569   4.345   1.678
 7959SOL    HW135936   2.504   4.360   1.603
 7959SOL    HW235937   2.662   4.338   1.641
 7960SOL     OW35938   1.919   4.795   0.257
 7960SOL    HW135939   1.962   4.707   0.273
 7960SOL    HW235940   1.964   4.841   0.181
 7961SOL     OW35941   3.609   3.931   0.873
 7961SOL    HW135942   3.581   3.947   0.967
 7961SOL    HW235943   3.709   3.924   0.869
 7962SOL     OW35944   2.652   4.826   1.106
 7962SOL    HW135945   2.609   4.741   1.075
 7962SOL    HW235946   2.724   4.853   1.042
 7963SOL     OW35947   3.051   4.235   0.281
 7963SOL    HW135948   3.080   4.322   0.321
 7963SOL    HW235949   3.032   4.248   0.184
 7964SOL     OW35950   3.390   5.137   1.650
 7964SOL    HW135951   3.346   5.054   1.684
 7964SOL    HW235952   3.327   5.186   1.589
 7965SOL     OW35953   1.979   4.520   1.410
 7965SOL    HW135954   2.034   4.439   1.434
 7965SOL    HW235955   2.002   4.595   1.471
 7966SOL     OW35956   2.595   5.150   0.086
 7966SOL    HW135957   2.596   5.248   0.103
 7966SOL    HW235958   2.667   5.106   0.140
 7967SOL     OW35959   2.672   4.741   0.777
 7967SOL    HW135960   2.742   4.787   0.832
 7967SOL    HW235961   2.603   4.702   0.838
 7968SOL     OW35962   1.875   4.622   1.810
 7968SOL    HW135963   1.775   4.622   1.804
 7968SOL    HW235964   1.904   4.570   1.890
 7969SOL     OW35965   2.814   5.510   1.437
 7969SOL    HW135966   2.780   5.449   1.508
 7969SOL    HW235967   2.742   5.576   1.413
 7970SOL     OW35968   3.061   4.749   1.073
 7970SOL    HW135969   3.148   4.755   1.122
 7970SOL    HW235970   3.004   4.677   1.114
 7971SOL     OW35971   2.400   4.102   1.810
 7971SOL    HW135972   2.474   4.093   1.743
 7971SOL    HW235973   2.393   4.198   1.837
 7972SOL     OW35974   2.382   4.584   0.348
 7972SOL    HW135975   2.351   4.673   0.315
 7972SOL    HW235976   2.304   4.531   0.381
 7973SOL     OW35977   3.477   4.615   0.999
 7973SOL    HW135978   3.488   4.698   0.945
 7973SOL    HW235979   3.430   4.637   1.085
 7974SOL     OW35980   3.167   3.954   1.411
 7974SOL    HW135981   3.182   3.922   1.505
 7974SOL    HW235982   3.109   3.888   1.363
 7975SOL     OW35983   3.145   3.853   1.674
 7975SOL    HW135984   3.210   3.848   1.749
 7975SOL    HW235985   3.066   3.908   1.701
 7976SOL     OW35986   2.294   5.293   1.619
 7976SOL    HW135987   2.237   5.350   1.679
 7976SOL    HW235988   2.331   5.348   1.545
 7977SOL     OW35989   3.645   5.149   1.544
 7977SOL    HW135990   3.688   5.234   1.573
 7977SOL    HW235991   3.554   5.142   1.586
 7978SOL     OW35992   2.902   4.169   1.109
 7978SOL    HW135993   2.984   4.224   1.121
 7978SOL    HW235994   2.902   4.093   1.174
 7979SOL     OW35995   2.981   5.351   1.247
 7979SOL    HW135996   2.907   5.385   1.307
 7979SOL    HW235997   2.996   5.254   1.265
 7980SOL     OW35998   2.140   5.455   1.792
 7980SOL    HW135999   2.167   5.551   1.794
 7980SOL    HW236000   2.139   5.419   1.885
 7981SOL     OW36001   1.959   4.982   1.653
 7981SOL    HW136002   1.953   4.888   1.622
 7981SOL    HW236003   1.892   5.038   1.603
 7982SOL     OW36004   2.053   5.549   1.008
 7982SOL    HW136005   2.035   5.467   0.953
 7982SOL    HW236006   2.105   5.615   0.953
 7983SOL     OW36007   2.922   3.864   0.804
 7983SOL    HW136008   3.007   3.883   0.853
 7983SOL    HW236009   2.875   3.788   0.848
 7984SOL     OW36010   2.929   4.960   0.440
 7984SOL    HW136011   3.017   4.966   0.487
 7984SOL    HW236012   2.876   4.884   0.478
 7985SOL     OW36013   3.488   4.151   0.755
 7985SOL    HW136014   3.513   4.233   0.807
 7985SOL    HW236015   3.534   4.071   0.794
 7986SOL     OW36016   2.608   4.817   0.217
 7986SOL    HW136017   2.680   4.887   0.216
 7986SOL    HW236018   2.642   4.735   0.265
 7987SOL     OW36019   2.730   3.824   0.129
 7987SOL    HW136020   2.783   3.740   0.124
 7987SOL    HW236021   2.770   3.885   0.197
 7988SOL     OW36022   2.441   4.218   0.725
 7988SOL    HW136023   2.476   4.125   0.736
 7988SOL    HW236024   2.490   4.263   0.650
 7989SOL     OW36025   2.401   4.666   1.426
 7989SOL    HW136026   2.492   4.688   1.462
 7989SOL    HW236027   2.387   4.714   1.340
 7990SOL     OW36028   3.604   4.807   1.327
 7990SOL    HW136029   3.618   4.905   1.313
 7990SOL    HW236030   3.660   4.756   1.263
 7991SOL     OW36031   2.037   4.952   0.060
 7991SOL    HW136032   1.946   4.991   0.048
 7991SOL    HW236033   2.096   5.017   0.109
 7992SOL     OW36034   2.345   5.407   0.165
 7992SOL    HW136035   2.403   5.487   0.176
 7992SOL    HW236036   2.376   5.335   0.227
 7993SOL     OW36037   3.179   4.835   1.453
 7993SOL    HW136038   3.118   4.802   1.525
 7993SOL    HW236039   3.153   4.928   1.427
 7994SOL     OW36040   2.394   5.450   1.407
 7994SOL    HW136041   2.457   5.528   1.413
 7994SOL    HW236042   2.314   5.475   1.352
 7995SOL     OW36043   2.054   4.274   1.767
 7995SOL    HW136044   2.045   4.175   1.759
 7995SOL    HW236045   2.101   4.296   1.853
 7996SOL     OW36046   3.498   5.227   1.068
 7996SOL    HW136047   3.524   5.323   1.082
 7996SOL    HW236048   3.551   5.169   1.130
 7997SOL     OW36049   1.957   4.625   0.513
 7997SOL    HW136050   1.965   4.724   0.525
 7997SOL    HW236051   1.876   4.592   0.563
 7998SOL     OW36052   2.384   4.396   1.485
 7998SOL    HW136053   2.290   4.361   1.494
 7998SOL    HW236054   2.381   4.494   1.463
 7999SOL     OW36055   3.492   4.853   0.856
 7999SOL    HW136056   3.490   4.952   0.843
 7999SOL    HW236057   3.445   4.808   0.780
 8000SOL     OW36058   2.635   4.216   1.025
 8000SOL    HW136059   2.730   4.202   1.053
 8000SOL    HW236060   2.591   4.282   1.086
 8001SOL     OW36061   2.531   5.044   1.225
 8001SOL    HW136062   2.439   5.053   1.189
 8001SOL    HW236063   2.577   4.967   1.180
 8002SOL     OW36064   2.215   5.030   1.570
 8002SOL    HW136065   2.244   5.126   1.577
 8002SOL    HW236066   2.120   5.022   1.598
 8003SOL     OW36067   3.486   5.380   1.752
 8003SOL    HW136068   3.449   5.289   1.732
 8003SOL    HW236069   3.456   5.445   1.682
 8004SOL     OW36070   3.192   4.958   0.532
 8004SOL    HW136071   3.284   4.970   0.568
 8004SOL    HW236072   3.197   4.918   0.440
 8005SOL     OW36073   2.487   3.974   0.462
 8005SOL    HW136074   2.398   4.018   0.455
 8005SOL    HW236075   2.512   3.965   0.559
 8006SOL     OW36076   3.482   3.710   0.756
 8006SOL    HW136077   3.465   3.725   0.658
 8006SOL    HW236078   3.526   3.791   0.795
 8007SOL     OW36079   3.010   4.431   1.385
 8007SOL    HW136080   3.109   4.441   1.377
 8007SOL    HW236081   2.965   4.478   1.309
 8008SOL     OW36082   2.650   4.414   0.818
 8008SOL    HW136083   2.635   4.328   0.867
 8008SOL    HW236084   2.636   4.399   0.720
 8009SOL     OW36085   3.216   4.113   0.742
 8009SOL    HW136086   3.197   4.113   0.644
 8009SOL    HW236087   3.313   4.134   0.756
 8010SOL     OW36088   3.462   4.283   3.261
 8010SOL    HW136089   3.377   4.243   3.295
 8010SOL    HW236090   3.522   4.305   3.339
 8011SOL     OW36091   2.220   3.912   1.862
 8011SOL    HW136092   2.142   3.933   1.803
 8011SOL    HW236093   2.294   3.978   1.844
 8012SOL     OW36094   3.033   3.742   3.153
 8012SOL    HW136095   2.960   3.686   3.194
 8012SOL    HW236096   3.087   3.685   3.091
 8013SOL     OW36097   2.806   4.556   3.569
 8013SOL    HW136098   2.800   4.471   3.516
 8013SOL    HW236099   2.732   4.559   3.636
 8014SOL     OW36100   2.405   5.165   2.247
 8014SOL    HW136101   2.361   5.209   2.325
 8014SOL    HW236102   2.459   5.087   2.279
 8015SOL     OW36103   2.394   3.730   1.980
 8015SOL    HW136104   2.487   3.767   1.989
 8015SOL    HW236105   2.335   3.797   1.936
 8016SOL     OW36106   3.414   4.795   3.388
 8016SOL    HW136107   3.316   4.801   3.370
 8016SOL    HW236108   3.465   4.830   3.309
 8017SOL     OW36109   3.295   4.719   3.089
 8017SOL    HW136110   3.232   4.753   3.159
 8017SOL    HW236111   3.383   4.765   3.098
 8018SOL     OW36112   2.818   5.047   3.327
 8018SOL    HW136113   2.737   5.102   3.308
 8018SOL    HW236114   2.817   4.964   3.271
 8019SOL     OW36115   2.297   4.968   2.508
 8019SOL    HW136116   2.279   4.898   2.577
 8019SOL    HW236117   2.384   4.948   2.462
 8020SOL     OW36118   2.591   4.318   2.426
 8020SOL    HW136119   2.607   4.395   2.365
 8020SOL    HW236120   2.562   4.238   2.374
 8021SOL     OW36121   3.145   4.220   3.633
 8021SOL    HW136122   3.245   4.221   3.633
 8021SOL    HW236123   3.112   4.144   3.689
 8022SOL     OW36124   2.266   5.082   2.010
 8022SOL    HW136125   2.323   5.097   1.929
 8022SOL    HW236126   2.310   5.124   2.090
 8023SOL     OW36127   2.407   4.008   2.847
 8023SOL    HW136128   2.472   4.084   2.850
 8023SOL    HW236129   2.452   3.927   2.808
 8024SOL     OW36130   2.174   4.426   2.327
 8024SOL    HW136131   2.215   4.456   2.414
 8024SOL    HW236132   2.076   4.409   2.341
 8025SOL     OW36133   3.498   4.009   2.949
 8025SOL    HW136134   3.541   4.095   2.975
 8025SOL    HW236135   3.398   4.020   2.953
 8026SOL     OW36136   2.924   4.046   2.203
 8026SOL    HW136137   2.972   4.134   2.203
 8026SOL    HW236138   2.932   4.004   2.294
 8027SOL     OW36139   2.377   4.378   1.871
 8027SOL    HW136140   2.349   4.474   1.875
 8027SOL    HW236141   2.454   4.369   1.808
 8028SOL     OW36142   2.796   4.312   3.441
 8028SOL    HW136143   2.814   4.237   3.505
 8028SOL    HW236144   2.879   4.331   3.388
 8029SOL     OW36145   2.116   4.986   2.303
 8029SOL    HW136146   2.180   4.985   2.380
 8029SOL    HW236147   2.149   4.925   2.231
 8030SOL     OW36148   3.061   3.935   1.991
 8030SOL    HW136149   3.134   3.872   2.016
 8030SOL    HW236150   3.014   3.965   2.073
 8031SOL     OW36151   2.179   4.217   3.096
 8031SOL    HW136152   2.186   4.118   3.083
 8031SOL    HW236153   2.102   4.252   3.044
 8032SOL     OW36154   3.257   4.458   3.183
 8032SOL    HW136155   3.276   4.553   3.158
 8032SOL    HW236156   3.342   4.414   3.211
 8033SOL     OW36157   2.235   4.024   2.304
 8033SOL    HW136158   2.173   4.048   2.379
 8033SOL    HW236159   2.187   4.032   2.217
 8034SOL     OW36160   3.403   5.478   3.223
 8034SOL    HW136161   3.402   5.418   3.143
 8034SOL    HW236162   3.460   5.558   3.205
 8035SOL     OW36163   3.605   4.247   3.029
 8035SOL    HW136164   3.700   4.276   3.039
 8035SOL    HW236165   3.555   4.263   3.114
 8036SOL     OW36166   3.654   5.474   2.981
 8036SOL    HW136167   3.686   5.480   3.076
 8036SOL    HW236168   3.729   5.443   2.922
 8037SOL     OW36169   2.806   4.171   2.523
 8037SOL    HW136170   2.869   4.220   2.583
 8037SOL    HW236171   2.738   4.235   2.487
 8038SOL     OW36172   3.070   4.639   1.981
 8038SOL    HW136173   3.092   4.604   2.072
 8038SOL    HW236174   3.018   4.570   1.930
 8039SOL     OW36175   2.819   4.121   3.642
 8039SOL    HW136176   2.903   4.082   3.681
 8039SOL    HW236177   2.740   4.089   3.695
 8040SOL     OW36178   3.612   4.355   2.196
 8040SOL    HW136179   3.564   4.268   2.209
 8040SOL    HW236180   3.659   4.380   2.280
 8041SOL     OW36181   2.879   5.519   1.971
 8041SOL    HW136182   2.904   5.445   1.909
 8041SOL    HW236183   2.927   5.509   2.057
 8042SOL     OW36184   2.615   3.714   3.561
 8042SOL    HW136185   2.647   3.622   3.536
 8042SOL    HW236186   2.627   3.729   3.659
 8043SOL     OW36187   3.527   4.339   2.785
 8043SOL    HW136188   3.469   4.419   2.801
 8043SOL    HW236189   3.554   4.299   2.872
 8044SOL     OW36190   2.922   5.007   3.590
 8044SOL    HW136191   2.968   4.919   3.580
 8044SOL    HW236192   2.874   5.030   3.505
 8045SOL     OW36193   3.238   3.658   2.727
 8045SOL    HW136194   3.194   3.747   2.734
 8045SOL    HW236195   3.326   3.667   2.679
 8046SOL     OW36196   3.515   3.951   3.680
 8046SOL    HW136197   3.499   3.978   3.775
 8046SOL    HW236198   3.558   3.861   3.679
 8047SOL     OW36199   1.919   4.402   2.427
 8047SOL    HW136200   1.926   4.337   2.503
 8047SOL    HW236201   1.895   4.492   2.462
 8048SOL     OW36202   2.217   3.905   2.636
 8048SOL    HW136203   2.271   3.948   2.709
 8048SOL    HW236204   2.262   3.821   2.606
 8049SOL     OW36205   2.225   3.948   3.048
 8049SOL    HW136206   2.220   3.850   3.068
 8049SOL    HW236207   2.291   3.964   2.975
 8050SOL     OW36208   2.878   4.510   2.787
 8050SOL    HW136209   2.783   4.504   2.757
 8050SOL    HW236210   2.929   4.431   2.753
 8051SOL     OW36211   2.026   5.243   2.244
 8051SOL    HW136212   2.056   5.148   2.258
 8051SOL    HW236213   2.082   5.286   2.174
 8052SOL     OW36214   3.303   5.049   3.132
 8052SOL    HW136215   3.271   5.092   3.048
 8052SOL    HW236216   3.230   5.051   3.201
 8053SOL     OW36217   2.024   5.324   2.516
 8053SOL    HW136218   1.928   5.328   2.543
 8053SOL    HW236219   2.030   5.308   2.418
 8054SOL     OW36220   3.564   5.109   3.143
 8054SOL    HW136221   3.600   5.126   3.235
 8054SOL    HW236222   3.468   5.085   3.149
 8055SOL     OW36223   2.332   4.648   1.879
 8055SOL    HW136224   2.310   4.694   1.793
 8055SOL    HW236225   2.305   4.707   1.956
 8056SOL     OW36226   2.813   4.816   3.162
 8056SOL    HW136227   2.865   4.734   3.139
 8056SOL    HW236228   2.760   4.845   3.083
 8057SOL     OW36229   1.946   4.493   2.041
 8057SOL    HW136230   2.023   4.430   2.042
 8057SOL    HW236231   1.871   4.455   2.095
 8058SOL     OW36232   3.419   4.547   2.221
 8058SOL    HW136233   3.487   4.476   2.201
 8058SOL    HW236234   3.436   4.626   2.162
 8059SOL     OW36235   2.795   5.539   2.943
 8059SOL    HW136236   2.704   5.501   2.926
 8059SOL    HW236237   2.790   5.607   3.016
 8060SOL     OW36238   2.600   4.607   1.943
 8060SOL    HW136239   2.616   4.511   1.967
 8060SOL    HW236240   2.505   4.618   1.913
 8061SOL     OW36241   3.214   4.130   2.292
 8061SOL    HW136242   3.168   4.190   2.228
 8061SOL    HW236243   3.313   4.140   2.282
 8062SOL     OW36244   2.142   4.360   3.327
 8062SOL    HW136245   2.155   4.294   3.253
 8062SOL    HW236246   2.130   4.311   3.414
 8063SOL     OW36247   2.871   4.551   3.068
 8063SOL    HW136248   2.881   4.540   2.969
 8063SOL    HW236249   2.789   4.502   3.098
 8064SOL     OW36250   3.493   4.121   2.299
 8064SOL    HW136251   3.584   4.083   2.283
 8064SOL    HW236252   3.478   4.134   2.397
 8065SOL     OW36253   2.678   4.083   2.102
 8065SOL    HW136254   2.610   4.081   2.175
 8065SOL    HW236255   2.769   4.072   2.140
 8066SOL     OW36256   2.788   4.976   1.924
 8066SOL    HW136257   2.829   4.946   2.010
 8066SOL    HW236258   2.860   4.992   1.856
 8067SOL     OW36259   3.057   4.687   2.423
 8067SOL    HW136260   3.070   4.687   2.522
 8067SOL    HW236261   2.959   4.689   2.402
 8068SOL     OW36262   2.676   5.326   3.495
 8068SOL    HW136263   2.636   5.271   3.422
 8068SOL    HW236264   2.669   5.276   3.582
 8069SOL     OW36265   3.075   4.691   2.695
 8069SOL    HW136266   3.005   4.632   2.735
 8069SOL    HW236267   3.100   4.763   2.760
 8070SOL     OW36268   2.217   4.782   2.697
 8070SOL    HW136269   2.125   4.822   2.700
 8070SOL    HW236270   2.254   4.775   2.790
 8071SOL     OW36271   2.790   4.697   2.362
 8071SOL    HW136272   2.733   4.628   2.318
 8071SOL    HW236273   2.743   4.732   2.443
 8072SOL     OW36274   3.091   5.078   3.299
 8072SOL    HW136275   3.130   5.165   3.328
 8072SOL    HW236276   2.992   5.080   3.313
 8073SOL     OW36277   1.880   4.062   2.257
 8073SOL    HW136278   1.948   4.063   2.183
 8073SOL    HW236279   1.925   4.045   2.344
 8074SOL     OW36280   3.492   5.575   1.943
 8074SOL    HW136281   3.585   5.579   1.980
 8074SOL    HW236282   3.485   5.495   1.883
 8075SOL     OW36283   2.668   4.425   3.212
 8075SOL    HW136284   2.645   4.511   3.257
 8075SOL    HW236285   2.714   4.364   3.277
 8076SOL     OW36286   2.628   4.510   2.243
 8076SOL    HW136287   2.535   4.542   2.226
 8076SOL    HW236288   2.662   4.462   2.163
 8077SOL     OW36289   2.183   4.251   2.769
 8077SOL    HW136290   2.252   4.242   2.698
 8077SOL    HW236291   2.220   4.219   2.857
 8078SOL     OW36292   2.158   5.449   2.077
 8078SOL    HW136293   2.249   5.478   2.049
 8078SOL    HW236294   2.137   5.486   2.168
 8079SOL     OW36295   1.961   4.891   2.761
 8079SOL    HW136296   1.870   4.880   2.721
 8079SOL    HW236297   1.968   4.832   2.843
 8080SOL     OW36298   2.574   3.781   2.287
 8080SOL    HW136299   2.596   3.770   2.190
 8080SOL    HW236300   2.544   3.874   2.304
 8081SOL     OW36301   1.871   4.859   2.353
 8081SOL    HW136302   1.949   4.921   2.361
 8081SOL    HW236303   1.871   4.818   2.262
 8082SOL     OW36304   3.414   3.969   3.416
 8082SOL    HW136305   3.361   4.054   3.407
 8082SOL    HW236306   3.453   3.963   3.508
 8083SOL     OW36307   3.136   3.916   2.757
 8083SOL    HW136308   3.148   3.980   2.682
 8083SOL    HW236309   3.170   3.957   2.842
 8084SOL     OW36310   3.278   3.758   2.021
 8084SOL    HW136311   3.373   3.727   2.013
 8084SOL    HW236312   3.219   3.679   2.037
 8085SOL     OW36313   3.426   3.693   3.414
 8085SOL    HW136314   3.420   3.656   3.321
 8085SOL    HW236315   3.421   3.793   3.410
 8086SOL     OW36316   2.574   4.017   2.573
 8086SOL    HW136317   2.566   3.931   2.623
 8086SOL    HW236318   2.668   4.051   2.581
 8087SOL     OW36319   3.151   4.321   2.973
 8087SOL    HW136320   3.180   4.374   2.894
 8087SOL    HW236321   3.181   4.366   3.057
 8088SOL     OW36322   3.420   3.748   2.312
 8088SOL    HW136323   3.429   3.704   2.223
 8088SOL    HW236324   3.328   3.787   2.321
 8089SOL     OW36325   2.370   5.184   3.697
 8089SOL    HW136326   2.350   5.222   3.606
 8089SOL    HW236327   2.468   5.189   3.714
 8090SOL     OW36328   1.997   5.134   2.896
 8090SOL    HW136329   1.998   5.055   2.834
 8090SOL    HW236330   1.903   5.158   2.917
 8091SOL     OW36331   2.990   4.273   2.698
 8091SOL    HW136332   3.068   4.225   2.658
 8091SOL    HW236333   2.962   4.227   2.782
 8092SOL     OW36334   3.589   4.369   3.496
 8092SOL    HW136335   3.581   4.448   3.435
 8092SOL    HW236336   3.667   4.381   3.557
 8093SOL     OW36337   3.226   4.055   2.978
 8093SOL    HW136338   3.203   4.153   2.976
 8093SOL    HW236339   3.208   4.019   3.070
 8094SOL     OW36340   3.414   4.203   3.626
 8094SOL    HW136341   3.476   4.263   3.576
 8094SOL    HW236342   3.462   4.117   3.648
 8095SOL     OW36343   3.148   4.530   2.222
 8095SOL    HW136344   3.112   4.583   2.299
 8095SOL    HW236345   3.248   4.534   2.223
 8096SOL     OW36346   3.460   4.539   2.494
 8096SOL    HW136347   3.441   4.554   2.396
 8096SOL    HW236348   3.392   4.476   2.531
 8097SOL     OW36349   3.591   4.583   3.337
 8097SOL    HW136350   3.520   4.653   3.336
 8097SOL    HW236351   3.681   4.626   3.340
 8098SOL     OW36352   3.427   4.003   2.029
 8098SOL    HW136353   3.448   4.036   2.121
 8098SOL    HW236354   3.362   3.928   2.034
 8099SOL     OW36355   2.584   5.196   3.266
 8099SOL    HW136356   2.529   5.276   3.245
 8099SOL    HW236357   2.548   5.117   3.217
 8100SOL     OW36358   2.032   4.046   2.493
 8100SOL    HW136359   1.993   4.118   2.550
 8100SOL    HW236360   2.090   3.987   2.548
 8101SOL     OW36361   3.229   5.303   3.368
 8101SOL    HW136362   3.161   5.360   3.414
 8101SOL    HW236363   3.287   5.361   3.311
 8102SOL     OW36364   2.172   4.318   2.052
 8102SOL    HW136365   2.254   4.338   1.998
 8102SOL    HW236366   2.187   4.348   2.147
 8103SOL     OW36367   3.602   3.938   3.204
 8103SOL    HW136368   3.534   3.957   3.275
 8103SOL    HW236369   3.561   3.949   3.114
 8104SOL     OW36370   2.220   5.013   3.048
 8104SOL    HW136371   2.216   5.035   3.145
 8104SOL    HW236372   2.147   5.062   2.999
 8105SOL     OW36373   2.993   5.263   3.693
 8105SOL    HW136374   2.969   5.171   3.662
 8105SOL    HW236375   3.010   5.321   3.613
 8106SOL     OW36376   2.529   4.928   2.367
 8106SOL    HW136377   2.552   4.883   2.280
 8106SOL    HW236378   2.590   4.895   2.439
 8107SOL     OW36379   2.243   4.525   2.583
 8107SOL    HW136380   2.248   4.621   2.611
 8107SOL    HW236381   2.310   4.472   2.634
 8108SOL     OW36382   2.091   4.051   2.070
 8108SOL    HW136383   2.138   3.996   2.000
 8108SOL    HW236384   2.113   4.148   2.057
 8109SOL     OW36385   1.934   4.247   2.657
 8109SOL    HW136386   1.868   4.299   2.710
 8109SOL    HW236387   2.023   4.250   2.703
 8110SOL     OW36388   2.310   4.827   2.098
 8110SOL    HW136389   2.409   4.832   2.108
 8110SOL    HW236390   2.276   4.912   2.058
 8111SOL     OW36391   2.940   4.406   1.870
 8111SOL    HW136392   2.889   4.469   1.811
 8111SOL    HW236393   3.002   4.350   1.814
 8112SOL     OW36394   2.705   4.358   2.024
 8112SOL    HW136395   2.789   4.368   1.971
 8112SOL    HW236396   2.684   4.261   2.036
 8113SOL     OW36397   3.174   3.863   2.335
 8113SOL    HW136398   3.087   3.856   2.384
 8113SOL    HW236399   3.192   3.958   2.312
 8114SOL     OW36400   3.236   4.180   3.368
 8114SOL    HW136401   3.183   4.208   3.448
 8114SOL    HW236402   3.183   4.114   3.315
 8115SOL     OW36403   1.931   3.770   2.025
 8115SOL    HW136404   2.004   3.704   2.043
 8115SOL    HW236405   1.962   3.862   2.049
 8116SOL     OW36406   2.316   4.765   2.956
 8116SOL    HW136407   2.356   4.725   3.038
 8116SOL    HW236408   2.269   4.850   2.980
 8117SOL     OW36409   3.478   4.738   2.035
 8117SOL    HW136410   3.573   4.763   2.055
 8117SOL    HW236411   3.466   4.727   1.937
 8118SOL     OW36412   2.460   4.299   3.061
 8118SOL    HW136413   2.509   4.354   3.129
 8118SOL    HW236414   2.365   4.285   3.091
 8119SOL     OW36415   2.672   4.670   3.346
 8119SOL    HW136416   2.729   4.730   3.291
 8119SOL    HW236417   2.718   4.651   3.433
 8120SOL     OW36418   3.004   4.745   3.534
 8120SOL    HW136419   2.928   4.681   3.546
 8120SOL    HW236420   3.089   4.699   3.559
 8121SOL     OW36421   2.929   3.938   2.459
 8121SOL    HW136422   2.886   4.026   2.479
 8121SOL    HW236423   2.910   3.873   2.533
 8122SOL     OW36424   3.037   5.446   3.496
 8122SOL    HW136425   2.960   5.475   3.440
 8122SOL    HW236426   3.084   5.527   3.532
 8123SOL     OW36427   2.519   3.796   2.721
 8123SOL    HW136428   2.460   3.734   2.670
 8123SOL    HW236429   2.593   3.744   2.764
 8124SOL     OW36430   2.224   5.521   3.044
 8124SOL    HW136431   2.196   5.470   2.963
 8124SOL    HW236432   2.146   5.529   3.107
 8125SOL     OW36433   2.875   4.936   2.742
 8125SOL    HW136434   2.893   5.009   2.676
 8125SOL    HW236435   2.959   4.915   2.792
 8126SOL     OW36436   2.536   4.681   2.786
 8126SOL    HW136437   2.554   4.586   2.764
 8126SOL    HW236438   2.451   4.688   2.838
 8127SOL     OW36439   1.982   4.708   2.962
 8127SOL    HW136440   2.016   4.663   3.044
 8127SOL    HW236441   1.993   4.648   2.883
 8128SOL     OW36442   2.149   3.753   2.302
 8128SOL    HW136443   2.193   3.842   2.318
 8128SOL    HW236444   2.056   3.755   2.338
 8129SOL     OW36445   2.517   4.320   3.502
 8129SOL    HW136446   2.474   4.381   3.436
 8129SOL    HW236447   2.616   4.315   3.484
 8130SOL     OW36448   1.921   4.768   2.097
 8130SOL    HW136449   1.946   4.674   2.074
 8130SOL    HW236450   1.966   4.831   2.032
 8131SOL     OW36451   3.584   3.929   2.699
 8131SOL    HW136452   3.554   3.947   2.793
 8131SOL    HW236453   3.683   3.920   2.696
 8132SOL     OW36454   2.677   4.870   2.928
 8132SOL    HW136455   2.625   4.797   2.883
 8132SOL    HW236456   2.748   4.904   2.867
 8133SOL     OW36457   3.055   4.291   2.133
 8133SOL    HW136458   3.083   4.378   2.173
 8133SOL    HW236459   3.015   4.307   2.042
 8134SOL     OW36460   3.392   5.142   3.525
 8134SOL    HW136461   3.350   5.058   3.561
 8134SOL    HW236462   3.327   5.189   3.467
 8135SOL     OW36463   2.017   4.560   3.194
 8135SOL    HW136464   2.067   4.489   3.244
 8135SOL    HW236465   1.966   4.616   3.260
 8136SOL     OW36466   2.668   5.217   1.860
 8136SOL    HW136467   2.622   5.264   1.936
 8136SOL    HW236468   2.716   5.137   1.894
 8137SOL     OW36469   2.675   4.813   2.583
 8137SOL    HW136470   2.750   4.854   2.634
 8137SOL    HW236471   2.613   4.766   2.646
 8138SOL     OW36472   2.006   4.547   2.739
 8138SOL    HW136473   2.089   4.522   2.689
 8138SOL    HW236474   1.938   4.583   2.675
 8139SOL     OW36475   2.016   4.703   3.594
 8139SOL    HW136476   1.941   4.691   3.529
 8139SOL    HW236477   1.986   4.762   3.669
 8140SOL     OW36478   2.818   5.503   3.335
 8140SOL    HW136479   2.773   5.432   3.389
 8140SOL    HW236480   2.752   5.575   3.313
 8141SOL     OW36481   3.126   4.907   2.872
 8141SOL    HW136482   3.151   5.004   2.875
 8141SOL    HW236483   3.177   4.857   2.942
 8142SOL     OW36484   2.383   4.086   3.542
 8142SOL    HW136485   2.433   4.015   3.492
 8142SOL    HW236486   2.433   4.172   3.534
 8143SOL     OW36487   2.368   4.578   2.206
 8143SOL    HW136488   2.333   4.666   2.174
 8143SOL    HW236489   2.293   4.525   2.247
 8144SOL     OW36490   3.366   4.555   2.863
 8144SOL    HW136491   3.387   4.625   2.795
 8144SOL    HW236492   3.336   4.599   2.948
 8145SOL     OW36493   3.178   3.952   3.228
 8145SOL    HW136494   3.249   3.917   3.288
 8145SOL    HW236495   3.116   3.878   3.202
 8146SOL     OW36496   1.890   3.714   2.375
 8146SOL    HW136497   1.880   3.635   2.315
 8146SOL    HW236498   1.811   3.774   2.364
 8147SOL     OW36499   3.118   3.807   3.603
 8147SOL    HW136500   3.181   3.791   3.679
 8147SOL    HW236501   3.056   3.882   3.626
 8148SOL     OW36502   2.309   5.313   3.451
 8148SOL    HW136503   2.250   5.380   3.495
 8148SOL    HW236504   2.353   5.354   3.371
 8149SOL     OW36505   3.640   5.145   3.406
 8149SOL    HW136506   3.683   5.232   3.428
 8149SOL    HW236507   3.551   5.139   3.451
 8150SOL     OW36508   2.904   4.183   2.946
 8150SOL    HW136509   2.979   4.242   2.976
 8150SOL    HW236510   2.916   4.092   2.986
 8151SOL     OW36511   2.286   5.242   2.482
 8151SOL    HW136512   2.289   5.145   2.509
 8151SOL    HW236513   2.195   5.278   2.503
 8152SOL     OW36514   2.992   5.353   3.016
 8152SOL    HW136515   2.939   5.294   3.077
 8152SOL    HW236516   2.930   5.420   2.973
 8153SOL     OW36517   2.143   5.491   3.596
 8153SOL    HW136518   2.146   5.588   3.621
 8153SOL    HW236519   2.132   5.436   3.679
 8154SOL     OW36520   1.842   4.944   3.539
 8154SOL    HW136521   1.835   4.867   3.475
 8154SOL    HW236522   1.845   5.030   3.487
 8155SOL     OW36523   2.106   5.385   2.813
 8155SOL    HW136524   2.074   5.301   2.856
 8155SOL    HW236525   2.109   5.373   2.714
 8156SOL     OW36526   2.879   3.816   2.700
 8156SOL    HW136527   2.968   3.843   2.739
 8156SOL    HW236528   2.826   3.767   2.769
 8157SOL     OW36529   2.859   4.892   2.174
 8157SOL    HW136530   2.947   4.925   2.207
 8157SOL    HW236531   2.827   4.817   2.233
 8158SOL     OW36532   3.466   4.151   2.581
 8158SOL    HW136533   3.489   4.226   2.643
 8158SOL    HW236534   3.508   4.066   2.613
 8159SOL     OW36535   2.583   4.827   2.111
 8159SOL    HW136536   2.662   4.887   2.098
 8159SOL    HW236537   2.594   4.744   2.056
 8160SOL     OW36538   2.652   3.819   2.016
 8160SOL    HW136539   2.734   3.762   2.025
 8160SOL    HW236540   2.674   3.913   2.040
 8161SOL     OW36541   2.389   4.228   2.597
 8161SOL    HW136542   2.436   4.140   2.610
 8161SOL    HW236543   2.438   4.282   2.528
 8162SOL     OW36544   2.450   4.730   3.201
 8162SOL    HW136545   2.528   4.703   3.258
 8162SOL    HW236546   2.456   4.827   3.181
 8163SOL     OW36547   3.546   4.829   3.147
 8163SOL    HW136548   3.564   4.925   3.126
 8163SOL    HW236549   3.609   4.771   3.095
 8164SOL     OW36550   2.037   4.945   1.923
 8164SOL    HW136551   2.008   4.962   1.829
 8164SOL    HW236552   2.112   5.007   1.947
 8165SOL     OW36553   2.509   5.325   2.048
 8165SOL    HW136554   2.462   5.413   2.038
 8165SOL    HW236555   2.473   5.277   2.127
 8166SOL     OW36556   3.150   4.813   3.306
 8166SOL    HW136557   3.093   4.771   3.376
 8166SOL    HW236558   3.127   4.910   3.297
 8167SOL     OW36559   2.430   5.429   3.220
 8167SOL    HW136560   2.489   5.509   3.229
 8167SOL    HW236561   2.356   5.450   3.156
 8168SOL     OW36562   2.149   4.226   3.568
 8168SOL    HW136563   2.231   4.171   3.555
 8168SOL    HW236564   2.161   4.286   3.646
 8169SOL     OW36565   3.435   5.314   2.996
 8169SOL    HW136566   3.500   5.382   2.964
 8169SOL    HW236567   3.484   5.235   3.034
 8170SOL     OW36568   1.844   4.642   2.529
 8170SOL    HW136569   1.869   4.720   2.473
 8170SOL    HW236570   1.745   4.638   2.539
 8171SOL     OW36571   2.388   4.481   3.325
 8171SOL    HW136572   2.293   4.448   3.329
 8171SOL    HW236573   2.391   4.568   3.276
 8172SOL     OW36574   3.427   4.747   2.676
 8172SOL    HW136575   3.353   4.805   2.641
 8172SOL    HW236576   3.455   4.682   2.606
 8173SOL     OW36577   2.623   4.210   2.867
 8173SOL    HW136578   2.718   4.199   2.898
 8173SOL    HW236579   2.567   4.244   2.943
 8174SOL     OW36580   2.495   4.989   3.107
 8174SOL    HW136581   2.404   5.008   3.072
 8174SOL    HW236582   2.554   4.957   3.032
 8175SOL     OW36583   1.976   4.388   2.972
 8175SOL    HW136584   1.987   4.451   3.049
 8175SOL    HW236585   2.007   4.434   2.888
 8176SOL     OW36586   2.226   5.073   3.316
 8176SOL    HW136587   2.250   5.157   3.365
 8176SOL    HW236588   2.210   5.000   3.382
 8177SOL     OW36589   3.508   5.358   3.649
 8177SOL    HW136590   3.470   5.270   3.620
 8177SOL    HW236591   3.469   5.431   3.594
 8178SOL     OW36592   3.110   4.920   2.279
 8178SOL    HW136593   3.109   4.836   2.334
 8178SOL    HW236594   3.155   4.901   2.192
 8179SOL     OW36595   2.505   4.064   2.319
 8179SOL    HW136596   2.406   4.054   2.307
 8179SOL    HW236597   2.529   4.042   2.413
 8180SOL     OW36598   3.469   3.705   2.580
 8180SOL    HW136599   3.446   3.725   2.485
 8180SOL    HW236600   3.511   3.786   2.622
 8181SOL     OW36601   2.995   4.409   3.278
 8181SOL    HW136602   3.094   4.415   3.273
 8181SOL    HW236603   2.954   4.463   3.204
 8182SOL     OW36604   2.617   4.429   2.697
 8182SOL    HW136605   2.611   4.348   2.756
 8182SOL    HW236606   2.609   4.402   2.601
 8183SOL     OW36607   3.195   5.184   2.921
 8183SOL    HW136608   3.120   5.246   2.944
 8183SOL    HW236609   3.281   5.236   2.918
 8184SOL     OW36610   3.191   4.126   2.576
 8184SOL    HW136611   3.171   4.122   2.478
 8184SOL    HW236612   3.290   4.136   2.589
 8185SOL     OW36613   3.026   4.952   4.390
 8185SOL    HW136614   3.096   4.947   4.318
 8185SOL    HW236615   2.959   5.023   4.367
 8186SOL     OW36616   3.461   4.985   4.215
 8186SOL    HW136617   3.470   5.076   4.256
 8186SOL    HW236618   3.552   4.949   4.194
 8187SOL     OW36619   3.490   4.376   5.179
 8187SOL    HW136620   3.405   4.327   5.197
 8187SOL    HW236621   3.559   4.350   5.247
 8188SOL     OW36622   2.228   3.927   3.702
 8188SOL    HW136623   2.133   3.941   3.675
 8188SOL    HW236624   2.287   3.983   3.645
 8189SOL     OW36625   3.040   3.760   5.024
 8189SOL    HW136626   2.958   3.714   5.056
 8189SOL    HW236627   3.083   3.705   4.952
 8190SOL     OW36628   2.830   4.542   5.440
 8190SOL    HW136629   2.806   4.468   5.377
 8190SOL    HW236630   2.748   4.571   5.489
 8191SOL     OW36631   2.378   3.724   3.819
 8191SOL    HW136632   2.476   3.747   3.821
 8191SOL    HW236633   2.327   3.802   3.782
 8192SOL     OW36634   2.230   4.972   4.389
 8192SOL    HW136635   2.213   4.900   4.457
 8192SOL    HW236636   2.327   4.974   4.366
 8193SOL     OW36637   2.561   4.326   4.218
 8193SOL    HW136638   2.584   4.405   4.162
 8193SOL    HW236639   2.523   4.254   4.160
 8194SOL     OW36640   3.165   4.205   5.487
 8194SOL    HW136641   3.264   4.215   5.502
 8194SOL    HW236642   3.132   4.126   5.537
 8195SOL     OW36643   2.152   5.109   3.851
 8195SOL    HW136644   2.232   5.136   3.798
 8195SOL    HW236645   2.180   5.090   3.945
 8196SOL     OW36646   2.364   4.017   4.689
 8196SOL    HW136647   2.420   4.098   4.676
 8196SOL    HW236648   2.411   3.937   4.651
 8197SOL     OW36649   2.233   4.535   4.132
 8197SOL    HW136650   2.249   4.558   4.228
 8197SOL    HW236651   2.192   4.614   4.086
 8198SOL     OW36652   3.650   5.361   4.116
 8198SOL    HW136653   3.734   5.312   4.096
 8198SOL    HW236654   3.608   5.392   4.031
 8199SOL     OW36655   3.517   4.025   4.796
 8199SOL    HW136656   3.528   4.118   4.761
 8199SOL    HW236657   3.420   4.006   4.810
 8200SOL     OW36658   2.923   4.082   4.025
 8200SOL    HW136659   2.973   4.168   4.036
 8200SOL    HW236660   2.921   4.034   4.113
 8201SOL     OW36661   2.011   4.717   5.309
 8201SOL    HW136662   2.103   4.750   5.332
 8201SOL    HW236663   1.968   4.678   5.391
 8202SOL     OW36664   2.358   4.389   3.720
 8202SOL    HW136665   2.313   4.474   3.691
 8202SOL    HW236666   2.419   4.358   3.647
 8203SOL     OW36667   2.802   4.301   5.298
 8203SOL    HW136668   2.818   4.218   5.351
 8203SOL    HW236669   2.881   4.318   5.238
 8204SOL     OW36670   2.137   5.013   4.125
 8204SOL    HW136671   2.160   5.007   4.222
 8204SOL    HW236672   2.133   4.921   4.086
 8205SOL     OW36673   3.041   4.017   3.788
 8205SOL    HW136674   3.116   3.954   3.808
 8205SOL    HW236675   2.994   4.040   3.873
 8206SOL     OW36676   2.211   4.220   4.974
 8206SOL    HW136677   2.200   4.122   4.956
 8206SOL    HW236678   2.128   4.268   4.943
 8207SOL     OW36679   3.343   4.388   4.936
 8207SOL    HW136680   3.383   4.445   4.864
 8207SOL    HW236681   3.402   4.388   5.016
 8208SOL     OW36682   2.249   3.961   4.175
 8208SOL    HW136683   2.211   4.006   4.256
 8208SOL    HW236684   2.210   4.002   4.093
 8209SOL     OW36685   3.402   5.481   5.085
 8209SOL    HW136686   3.376   5.502   4.991
 8209SOL    HW236687   3.458   5.398   5.086
 8210SOL     OW36688   3.724   5.508   4.910
 8210SOL    HW136689   3.765   5.499   5.001
 8210SOL    HW236690   3.792   5.484   4.840
 8211SOL     OW36691   2.775   4.193   4.348
 8211SOL    HW136692   2.837   4.246   4.406
 8211SOL    HW236693   2.709   4.254   4.306
 8212SOL     OW36694   3.100   4.663   3.854
 8212SOL    HW136695   3.135   4.623   3.939
 8212SOL    HW236696   3.053   4.593   3.801
 8213SOL     OW36697   2.836   4.074   5.446
 8213SOL    HW136698   2.908   4.056   5.514
 8213SOL    HW236699   2.770   3.999   5.447
 8214SOL     OW36700   3.562   4.335   4.005
 8214SOL    HW136701   3.515   4.250   3.979
 8214SOL    HW236702   3.607   4.322   4.093
 8215SOL     OW36703   2.832   5.456   3.828
 8215SOL    HW136704   2.878   5.395   3.763
 8215SOL    HW236705   2.861   5.432   3.921
 8216SOL     OW36706   2.618   3.737   5.413
 8216SOL    HW136707   2.640   3.644   5.385
 8216SOL    HW236708   2.625   3.745   5.512
 8217SOL     OW36709   3.539   4.275   4.667
 8217SOL    HW136710   3.492   4.361   4.691
 8217SOL    HW236711   3.635   4.294   4.648
 8218SOL     OW36712   2.947   4.989   5.470
 8218SOL    HW136713   2.991   4.900   5.461
 8218SOL    HW236714   2.880   5.001   5.396
 8219SOL     OW36715   2.569   4.894   5.372
 8219SOL    HW136716   2.512   4.968   5.408
 8219SOL    HW236717   2.611   4.843   5.447
 8220SOL     OW36718   3.231   3.651   4.573
 8220SOL    HW136719   3.181   3.737   4.583
 8220SOL    HW236720   3.316   3.667   4.523
 8221SOL     OW36721   3.580   3.900   5.474
 8221SOL    HW136722   3.549   3.939   5.560
 8221SOL    HW236723   3.568   3.801   5.476
 8222SOL     OW36724   2.173   3.917   4.493
 8222SOL    HW136725   2.232   3.961   4.561
 8222SOL    HW236726   2.208   3.826   4.472
 8223SOL     OW36727   2.207   3.944   4.916
 8223SOL    HW136728   2.194   3.845   4.924
 8223SOL    HW236729   2.262   3.965   4.835
 8224SOL     OW36730   2.897   4.541   4.625
 8224SOL    HW136731   2.822   4.578   4.571
 8224SOL    HW236732   2.928   4.455   4.584
 8225SOL     OW36733   1.959   5.220   4.068
 8225SOL    HW136734   2.015   5.141   4.092
 8225SOL    HW236735   1.985   5.254   3.978
 8226SOL     OW36736   1.928   5.249   4.345
 8226SOL    HW136737   1.830   5.261   4.363
 8226SOL    HW236738   1.944   5.250   4.246
 8227SOL     OW36739   3.498   5.221   5.092
 8227SOL    HW136740   3.568   5.179   5.150
 8227SOL    HW236741   3.408   5.192   5.123
 8228SOL     OW36742   3.471   4.579   4.094
 8228SOL    HW136743   3.494   4.491   4.053
 8228SOL    HW236744   3.474   4.650   4.023
 8229SOL     OW36745   2.609   4.525   3.749
 8229SOL    HW136746   2.651   4.449   3.798
 8229SOL    HW236747   2.510   4.515   3.752
 8230SOL     OW36748   3.196   4.122   4.159
 8230SOL    HW136749   3.166   4.195   4.097
 8230SOL    HW236750   3.296   4.127   4.170
 8231SOL     OW36751   2.223   4.379   5.197
 8231SOL    HW136752   2.222   4.310   5.124
 8231SOL    HW236753   2.176   4.342   5.277
 8232SOL     OW36754   2.044   3.980   5.149
 8232SOL    HW136755   2.106   3.968   5.071
 8232SOL    HW236756   1.949   3.971   5.118
 8233SOL     OW36757   2.860   4.410   4.883
 8233SOL    HW136758   2.867   4.477   4.809
 8233SOL    HW236759   2.776   4.427   4.935
 8234SOL     OW36760   3.463   4.100   4.204
 8234SOL    HW136761   3.561   4.088   4.189
 8234SOL    HW236762   3.446   4.109   4.302
 8235SOL     OW36763   2.683   4.048   3.911
 8235SOL    HW136764   2.611   4.041   3.979
 8235SOL    HW236765   2.772   4.054   3.956
 8236SOL     OW36766   2.789   4.975   3.836
 8236SOL    HW136767   2.846   4.955   3.915
 8236SOL    HW236768   2.845   4.977   3.754
 8237SOL     OW36769   3.492   5.243   4.302
 8237SOL    HW136770   3.463   5.315   4.366
 8237SOL    HW236771   3.551   5.283   4.232
 8238SOL     OW36772   3.033   4.631   4.263
 8238SOL    HW136773   3.062   4.660   4.354
 8238SOL    HW236774   2.937   4.656   4.249
 8239SOL     OW36775   2.631   5.311   5.327
 8239SOL    HW136776   2.579   5.254   5.263
 8239SOL    HW236777   2.655   5.257   5.408
 8240SOL     OW36778   3.096   4.717   4.514
 8240SOL    HW136779   3.028   4.677   4.576
 8240SOL    HW236780   3.069   4.810   4.490
 8241SOL     OW36781   2.175   4.786   4.590
 8241SOL    HW136782   2.091   4.839   4.597
 8241SOL    HW236783   2.205   4.758   4.681
 8242SOL     OW36784   2.769   4.703   4.224
 8242SOL    HW136785   2.728   4.632   4.166
 8242SOL    HW236786   2.737   4.690   4.319
 8243SOL     OW36787   1.955   3.972   4.075
 8243SOL    HW136788   2.019   4.021   4.015
 8243SOL    HW236789   1.962   4.008   4.168
 8244SOL     OW36790   3.533   5.480   3.890
 8244SOL    HW136791   3.621   5.528   3.893
 8244SOL    HW236792   3.528   5.425   3.807
 8245SOL     OW36793   2.644   4.379   5.081
 8245SOL    HW136794   2.580   4.441   5.125
 8245SOL    HW236795   2.706   4.341   5.149
 8246SOL     OW36796   1.925   5.546   5.106
 8246SOL    HW136797   1.874   5.632   5.101
 8246SOL    HW236798   1.915   5.507   5.198
 8247SOL     OW36799   2.654   4.526   4.052
 8247SOL    HW136800   2.620   4.600   3.993
 8247SOL    HW236801   2.696   4.455   3.995
 8248SOL     OW36802   2.136   4.257   4.589
 8248SOL    HW136803   2.191   4.239   4.507
 8248SOL    HW236804   2.178   4.212   4.668
 8249SOL     OW36805   3.326   5.505   4.819
 8249SOL    HW136806   3.301   5.539   4.728
 8249SOL    HW236807   3.393   5.432   4.810
 8250SOL     OW36808   1.945   4.928   4.644
 8250SOL    HW136809   1.874   4.967   4.586
 8250SOL    HW236810   1.907   4.851   4.696
 8251SOL     OW36811   2.585   3.739   4.117
 8251SOL    HW136812   2.603   3.722   4.020
 8251SOL    HW236813   2.562   3.836   4.130
 8252SOL     OW36814   3.442   3.990   5.248
 8252SOL    HW136815   3.396   4.079   5.249
 8252SOL    HW236816   3.489   3.976   5.334
 8253SOL     OW36817   3.122   3.903   4.615
 8253SOL    HW136818   3.129   3.977   4.548
 8253SOL    HW236819   3.164   3.931   4.701
 8254SOL     OW36820   3.238   3.837   3.870
 8254SOL    HW136821   3.313   3.771   3.864
 8254SOL    HW236822   3.192   3.826   3.958
 8255SOL     OW36823   3.439   3.711   5.249
 8255SOL    HW136824   3.417   3.670   5.161
 8255SOL    HW236825   3.436   3.811   5.240
 8256SOL     OW36826   2.542   4.037   4.397
 8256SOL    HW136827   2.531   3.955   4.453
 8256SOL    HW236828   2.632   4.077   4.415
 8257SOL     OW36829   3.156   4.262   4.785
 8257SOL    HW136830   3.112   4.328   4.724
 8257SOL    HW236831   3.220   4.310   4.845
 8258SOL     OW36832   3.398   3.747   4.142
 8258SOL    HW136833   3.413   3.702   4.054
 8258SOL    HW236834   3.304   3.781   4.147
 8259SOL     OW36835   2.413   5.102   5.484
 8259SOL    HW136836   2.372   5.174   5.429
 8259SOL    HW236837   2.503   5.132   5.517
 8260SOL     OW36838   2.257   4.812   5.375
 8260SOL    HW136839   2.318   4.792   5.298
 8260SOL    HW236840   2.251   4.911   5.387
 8261SOL     OW36841   2.065   5.061   4.859
 8261SOL    HW136842   2.040   5.016   4.774
 8261SOL    HW236843   1.991   5.051   4.925
 8262SOL     OW36844   2.962   4.287   4.535
 8262SOL    HW136845   3.039   4.232   4.502
 8262SOL    HW236846   2.914   4.237   4.607
 8263SOL     OW36847   3.656   4.325   5.401
 8263SOL    HW136848   3.670   4.419   5.432
 8263SOL    HW236849   3.740   4.272   5.416
 8264SOL     OW36850   3.242   4.013   4.840
 8264SOL    HW136851   3.210   4.105   4.814
 8264SOL    HW236852   3.218   3.995   4.935
 8265SOL     OW36853   3.433   4.208   5.522
 8265SOL    HW136854   3.516   4.247   5.481
 8265SOL    HW236855   3.458   4.140   5.591
 8266SOL     OW36856   3.199   4.540   4.077
 8266SOL    HW136857   3.140   4.574   4.150
 8266SOL    HW236858   3.295   4.559   4.100
 8267SOL     OW36859   3.336   4.592   4.482
 8267SOL    HW136860   3.366   4.604   4.388
 8267SOL    HW236861   3.249   4.639   4.496
 8268SOL     OW36862   3.562   4.643   5.241
 8268SOL    HW136863   3.537   4.557   5.196
 8268SOL    HW236864   3.660   4.658   5.232
 8269SOL     OW36865   3.438   4.029   3.935
 8269SOL    HW136866   3.446   4.040   4.034
 8269SOL    HW236867   3.358   3.972   3.914
 8270SOL     OW36868   2.474   5.189   5.134
 8270SOL    HW136869   2.433   5.278   5.113
 8270SOL    HW236870   2.433   5.118   5.077
 8271SOL     OW36871   1.999   3.931   5.415
 8271SOL    HW136872   2.027   3.952   5.321
 8271SOL    HW236873   1.900   3.942   5.424
 8272SOL     OW36874   1.896   5.423   5.356
 8272SOL    HW136875   1.981   5.435   5.407
 8272SOL    HW236876   1.818   5.422   5.419
 8273SOL     OW36877   1.998   4.049   4.332
 8273SOL    HW136878   1.939   4.109   4.386
 8273SOL    HW236879   2.057   3.996   4.393
 8274SOL     OW36880   3.242   5.284   5.216
 8274SOL    HW136881   3.147   5.303   5.239
 8274SOL    HW236882   3.279   5.362   5.165
 8275SOL     OW36883   2.295   4.313   3.977
 8275SOL    HW136884   2.323   4.345   3.886
 8275SOL    HW236885   2.271   4.391   4.034
 8276SOL     OW36886   3.628   3.946   5.044
 8276SOL    HW136887   3.559   3.971   5.111
 8276SOL    HW236888   3.596   3.969   4.953
 8277SOL     OW36889   2.288   4.988   5.008
 8277SOL    HW136890   2.255   5.011   5.099
 8277SOL    HW236891   2.225   5.024   4.939
 8278SOL     OW36892   3.020   5.250   5.530
 8278SOL    HW136893   2.999   5.153   5.516
 8278SOL    HW236894   3.014   5.298   5.443
 8279SOL     OW36895   2.276   4.594   4.403
 8279SOL    HW136896   2.245   4.654   4.476
 8279SOL    HW236897   2.350   4.536   4.436
 8280SOL     OW36898   2.169   4.074   3.940
 8280SOL    HW136899   2.203   4.030   3.857
 8280SOL    HW236900   2.212   4.164   3.950
 8281SOL     OW36901   1.868   4.197   4.533
 8281SOL    HW136902   1.806   4.269   4.566
 8281SOL    HW236903   1.962   4.220   4.559
 8282SOL     OW36904   2.982   4.412   3.742
 8282SOL    HW136905   2.928   4.467   3.678
 8282SOL    HW236906   3.043   4.351   3.690
 8283SOL     OW36907   2.744   4.329   3.881
 8283SOL    HW136908   2.833   4.339   3.836
 8283SOL    HW236909   2.719   4.233   3.885
 8284SOL     OW36910   3.143   3.856   4.131
 8284SOL    HW136911   3.057   3.832   4.176
 8284SOL    HW236912   3.161   3.953   4.143
 8285SOL     OW36913   3.270   4.214   5.227
 8285SOL    HW136914   3.221   4.228   5.312
 8285SOL    HW236915   3.217   4.153   5.167
 8286SOL     OW36916   1.928   3.766   3.888
 8286SOL    HW136917   2.008   3.707   3.898
 8286SOL    HW236918   1.936   3.842   3.953
 8287SOL     OW36919   2.195   4.752   4.873
 8287SOL    HW136920   2.178   4.684   4.944
 8287SOL    HW236921   2.241   4.831   4.912
 8288SOL     OW36922   3.496   4.754   3.884
 8288SOL    HW136923   3.595   4.769   3.891
 8288SOL    HW236924   3.470   4.748   3.788
 8289SOL     OW36925   2.457   4.315   4.887
 8289SOL    HW136926   2.522   4.336   4.961
 8289SOL    HW236927   2.370   4.286   4.927
 8290SOL     OW36928   3.028   4.726   5.441
 8290SOL    HW136929   2.952   4.662   5.433
 8290SOL    HW236930   3.109   4.688   5.397
 8291SOL     OW36931   2.899   3.962   4.273
 8291SOL    HW136932   2.855   4.048   4.297
 8291SOL    HW236933   2.891   3.897   4.349
 8292SOL     OW36934   2.999   5.389   5.293
 8292SOL    HW136935   2.925   5.417   5.232
 8292SOL    HW236936   3.039   5.470   5.336
 8293SOL     OW36937   2.488   3.814   4.552
 8293SOL    HW136938   2.423   3.747   4.517
 8293SOL    HW236939   2.569   3.767   4.586
 8294SOL     OW36940   2.152   5.523   4.947
 8294SOL    HW136941   2.131   5.456   4.876
 8294SOL    HW236942   2.073   5.531   5.009
 8295SOL     OW36943   1.927   4.704   4.811
 8295SOL    HW136944   2.020   4.728   4.840
 8295SOL    HW236945   1.930   4.623   4.753
 8296SOL     OW36946   2.139   3.704   4.162
 8296SOL    HW136947   2.183   3.793   4.175
 8296SOL    HW236948   2.044   3.709   4.192
 8297SOL     OW36949   2.528   4.333   5.404
 8297SOL    HW136950   2.502   4.407   5.342
 8297SOL    HW236951   2.623   4.307   5.388
 8298SOL     OW36952   2.131   4.769   3.989
 8298SOL    HW136953   2.219   4.760   3.942
 8298SOL    HW236954   2.061   4.797   3.924
 8299SOL     OW36955   3.616   3.908   4.548
 8299SOL    HW136956   3.599   3.926   4.645
 8299SOL    HW236957   3.715   3.902   4.533
 8300SOL     OW36958   3.083   4.312   3.989
 8300SOL    HW136959   3.126   4.391   4.032
 8300SOL    HW236960   3.047   4.338   3.899
 8301SOL     OW36961   3.406   5.165   5.400
 8301SOL    HW136962   3.370   5.086   5.449
 8301SOL    HW236963   3.336   5.202   5.339
 8302SOL     OW36964   2.107   4.592   5.077
 8302SOL    HW136965   2.154   4.515   5.121
 8302SOL    HW236966   2.063   4.648   5.148
 8303SOL     OW36967   2.649   5.203   3.744
 8303SOL    HW136968   2.677   5.278   3.804
 8303SOL    HW236969   2.690   5.117   3.777
 8304SOL     OW36970   2.681   4.644   4.482
 8304SOL    HW136971   2.642   4.718   4.537
 8304SOL    HW236972   2.616   4.568   4.478
 8305SOL     OW36973   2.865   5.126   4.236
 8305SOL    HW136974   2.890   5.207   4.184
 8305SOL    HW236975   2.866   5.046   4.176
 8306SOL     OW36976   1.995   4.488   4.647
 8306SOL    HW136977   2.054   4.413   4.617
 8306SOL    HW236978   1.959   4.536   4.566
 8307SOL     OW36979   1.886   4.613   5.520
 8307SOL    HW136980   1.787   4.612   5.508
 8307SOL    HW236981   1.910   4.562   5.603
 8308SOL     OW36982   2.773   5.464   5.145
 8308SOL    HW136983   2.726   5.402   5.207
 8308SOL    HW236984   2.712   5.540   5.122
 8309SOL     OW36985   2.358   4.113   5.411
 8309SOL    HW136986   2.405   4.041   5.359
 8309SOL    HW236987   2.415   4.195   5.413
 8310SOL     OW36988   3.444   4.530   4.721
 8310SOL    HW136989   3.401   4.544   4.632
 8310SOL    HW236990   3.476   4.617   4.757
 8311SOL     OW36991   3.180   3.973   5.110
 8311SOL    HW136992   3.260   3.938   5.158
 8311SOL    HW236993   3.123   3.895   5.081
 8312SOL     OW36994   1.871   3.744   4.203
 8312SOL    HW136995   1.773   3.725   4.197
 8312SOL    HW236996   1.890   3.833   4.162
 8313SOL     OW36997   3.080   3.866   5.372
 8313SOL    HW136998   3.065   3.911   5.460
 8313SOL    HW236999   3.074   3.934   5.299
 8314SOL     OW37000   2.282   5.305   5.343
 8314SOL    HW137001   2.226   5.364   5.402
 8314SOL    HW237002   2.317   5.358   5.266
 8315SOL     OW37003   3.664   5.140   5.308
 8315SOL    HW137004   3.708   5.228   5.328
 8315SOL    HW237005   3.573   5.138   5.350
 8316SOL     OW37006   2.824   4.176   4.744
 8316SOL    HW137007   2.842   4.254   4.804
 8316SOL    HW237008   2.862   4.093   4.784
 8317SOL     OW37009   2.123   5.203   4.524
 8317SOL    HW137010   2.172   5.124   4.487
 8317SOL    HW237011   2.050   5.229   4.460
 8318SOL     OW37012   2.884   5.524   4.874
 8318SOL    HW137013   2.834   5.478   4.948
 8318SOL    HW237014   2.971   5.558   4.908
 8319SOL     OW37015   2.128   5.464   5.502
 8319SOL    HW137016   2.157   5.560   5.504
 8319SOL    HW237017   2.132   5.427   5.595
 8320SOL     OW37018   1.963   4.991   5.374
 8320SOL    HW137019   1.951   4.898   5.341
 8320SOL    HW237020   1.895   5.051   5.331
 8321SOL     OW37021   2.068   5.322   4.768
 8321SOL    HW137022   2.077   5.237   4.819
 8321SOL    HW237023   2.093   5.307   4.673
 8322SOL     OW37024   2.873   3.833   4.513
 8322SOL    HW137025   2.960   3.850   4.561
 8322SOL    HW237026   2.811   3.784   4.574
 8323SOL     OW37027   2.908   4.899   4.084
 8323SOL    HW137028   3.004   4.900   4.112
 8323SOL    HW237029   2.859   4.827   4.133
 8324SOL     OW37030   3.435   4.106   4.477
 8324SOL    HW137031   3.459   4.179   4.540
 8324SOL    HW237032   3.492   4.025   4.495
 8325SOL     OW37033   2.607   4.798   3.954
 8325SOL    HW137034   2.666   4.855   3.896
 8325SOL    HW237035   2.626   4.817   4.050
 8326SOL     OW37036   2.646   3.780   3.832
 8326SOL    HW137037   2.727   3.721   3.835
 8326SOL    HW237038   2.672   3.874   3.854
 8327SOL     OW37039   2.311   4.196   4.385
 8327SOL    HW137040   2.392   4.138   4.395
 8327SOL    HW237041   2.324   4.258   4.308
 8328SOL     OW37042   2.427   4.791   5.163
 8328SOL    HW137043   2.495   4.833   5.223
 8328SOL    HW237044   2.398   4.857   5.094
 8329SOL     OW37045   1.978   4.907   3.778
 8329SOL    HW137046   1.918   4.935   3.703
 8329SOL    HW237047   2.037   4.984   3.804
 8330SOL     OW37048   2.362   5.440   5.109
 8330SOL    HW137049   2.435   5.509   5.104
 8330SOL    HW237050   2.287   5.468   5.049
 8331SOL     OW37051   2.114   4.270   5.426
 8331SOL    HW137052   2.171   4.189   5.415
 8331SOL    HW237053   2.150   4.327   5.500
 8332SOL     OW37054   3.532   5.330   4.840
 8332SOL    HW137055   3.603   5.398   4.860
 8332SOL    HW237056   3.523   5.268   4.918
 8333SOL     OW37057   1.915   4.637   4.423
 8333SOL    HW137058   2.004   4.678   4.400
 8333SOL    HW237059   1.881   4.585   4.344
 8334SOL     OW37060   2.455   4.521   5.217
 8334SOL    HW137061   2.365   4.476   5.208
 8334SOL    HW237062   2.446   4.618   5.194
 8335SOL     OW37063   2.560   4.231   4.657
 8335SOL    HW137064   2.654   4.203   4.674
 8335SOL    HW237065   2.520   4.269   4.741
 8336SOL     OW37066   2.004   4.393   4.905
 8336SOL    HW137067   2.027   4.469   4.966
 8336SOL    HW237068   2.000   4.426   4.811
 8337SOL     OW37069   2.192   5.067   5.246
 8337SOL    HW137070   2.227   5.155   5.278
 8337SOL    HW237071   2.106   5.047   5.292
 8338SOL     OW37072   3.508   5.398   5.506
 8338SOL    HW137073   3.471   5.308   5.481
 8338SOL    HW237074   3.465   5.469   5.449
 8339SOL     OW37075   3.193   4.940   4.167
 8339SOL    HW137076   3.286   4.951   4.200
 8339SOL    HW237077   3.194   4.925   4.068
 8340SOL     OW37078   2.513   4.014   4.128
 8340SOL    HW137079   2.415   3.993   4.127
 8340SOL    HW237080   2.543   4.026   4.223
 8341SOL     OW37081   3.451   3.720   4.419
 8341SOL    HW137082   3.433   3.744   4.324
 8341SOL    HW237083   3.513   3.787   4.460
 8342SOL     OW37084   3.001   4.352   5.119
 8342SOL    HW137085   3.099   4.370   5.120
 8342SOL    HW237086   2.965   4.371   5.028
 8343SOL     OW37087   2.508   4.433   4.468
 8343SOL    HW137088   2.516   4.362   4.538
 8343SOL    HW237089   2.521   4.392   4.378
 8344SOL     OW37090   3.162   4.117   4.440
 8344SOL    HW137091   3.149   4.114   4.341
 8344SOL    HW237092   3.259   4.119   4.461
 8345SOL     OW37093   2.923   5.155   6.287
 8345SOL    HW137094   3.020   5.181   6.288
 8345SOL    HW237095   2.884   5.175   6.197
 8346SOL     OW37096   3.461   4.959   6.108
 8346SOL    HW137097   3.469   5.023   6.184
 8346SOL    HW237098   3.552   4.925   6.083
 8347SOL     OW37099   3.454   4.312   6.977
 8347SOL    HW137100   3.367   4.282   7.016
 8347SOL    HW237101   3.526   4.306   7.046
 8348SOL     OW37102   2.216   3.960   5.591
 8348SOL    HW137103   2.135   3.941   5.534
 8348SOL    HW237104   2.279   4.019   5.541
 8349SOL     OW37105   3.191   5.239   6.345
 8349SOL    HW137106   3.206   5.335   6.368
 8349SOL    HW237107   3.278   5.194   6.326
 8350SOL     OW37108   3.058   3.744   6.876
 8350SOL    HW137109   2.974   3.702   6.909
 8350SOL    HW237110   3.097   3.688   6.804
 8351SOL     OW37111   2.408   5.176   5.959
 8351SOL    HW137112   2.368   5.205   6.046
 8351SOL    HW237113   2.480   5.109   5.976
 8352SOL     OW37114   2.377   3.731   5.666
 8352SOL    HW137115   2.469   3.768   5.668
 8352SOL    HW237116   2.312   3.803   5.644
 8353SOL     OW37117   3.472   4.747   7.115
 8353SOL    HW137118   3.379   4.765   7.083
 8353SOL    HW237119   3.537   4.779   7.046
 8354SOL     OW37120   3.334   4.737   6.771
 8354SOL    HW137121   3.294   4.750   6.862
 8354SOL    HW237122   3.352   4.826   6.729
 8355SOL     OW37123   2.837   5.048   7.005
 8355SOL    HW137124   2.758   5.108   6.998
 8355SOL    HW237125   2.820   4.964   6.953
 8356SOL     OW37126   2.320   4.919   6.241
 8356SOL    HW137127   2.269   4.874   6.314
 8356SOL    HW237128   2.416   4.890   6.245
 8357SOL     OW37129   2.603   4.316   6.105
 8357SOL    HW137130   2.619   4.393   6.043
 8357SOL    HW237131   2.574   4.236   6.052
 8358SOL     OW37132   3.175   4.205   7.370
 8358SOL    HW137133   3.275   4.206   7.370
 8358SOL    HW237134   3.142   4.137   7.436
 8359SOL     OW37135   2.272   5.085   5.725
 8359SOL    HW137136   2.324   5.101   5.641
 8359SOL    HW237137   2.317   5.132   5.801
 8360SOL     OW37138   2.407   4.024   6.554
 8360SOL    HW137139   2.474   4.098   6.552
 8360SOL    HW237140   2.447   3.941   6.515
 8361SOL     OW37141   2.184   4.462   6.064
 8361SOL    HW137142   2.214   4.493   6.154
 8361SOL    HW237143   2.087   4.438   6.067
 8362SOL     OW37144   2.629   5.415   6.153
 8362SOL    HW137145   2.688   5.347   6.110
 8362SOL    HW237146   2.618   5.493   6.092
 8363SOL     OW37147   3.630   5.277   5.944
 8363SOL    HW137148   3.718   5.235   5.923
 8363SOL    HW237149   3.608   5.345   5.874
 8364SOL     OW37150   3.507   4.014   6.649
 8364SOL    HW137151   3.541   4.104   6.676
 8364SOL    HW237152   3.407   4.016   6.647
 8365SOL     OW37153   2.936   4.059   5.862
 8365SOL    HW137154   2.983   4.146   5.875
 8365SOL    HW237155   2.941   4.005   5.946
 8366SOL     OW37156   2.005   4.679   7.136
 8366SOL    HW137157   2.097   4.716   7.145
 8366SOL    HW237158   1.969   4.652   7.226
 8367SOL     OW37159   2.325   4.397   5.592
 8367SOL    HW137160   2.327   4.497   5.594
 8367SOL    HW237161   2.402   4.363   5.539
 8368SOL     OW37162   2.513   5.304   6.370
 8368SOL    HW137163   2.562   5.352   6.297
 8368SOL    HW237164   2.433   5.258   6.331
 8369SOL     OW37165   2.819   4.292   6.940
 8369SOL    HW137166   2.782   4.277   7.032
 8369SOL    HW237167   2.902   4.347   6.946
 8370SOL     OW37168   3.454   5.129   6.346
 8370SOL    HW137169   3.464   5.156   6.442
 8370SOL    HW237170   3.509   5.189   6.288
 8371SOL     OW37171   2.150   4.960   6.024
 8371SOL    HW137172   2.211   4.947   6.102
 8371SOL    HW237173   2.183   4.908   5.946
 8372SOL     OW37174   3.055   3.990   5.624
 8372SOL    HW137175   3.128   3.926   5.648
 8372SOL    HW237176   3.004   4.015   5.706
 8373SOL     OW37177   2.245   4.242   6.802
 8373SOL    HW137178   2.236   4.143   6.794
 8373SOL    HW237179   2.161   4.285   6.767
 8374SOL     OW37180   3.280   4.469   6.826
 8374SOL    HW137181   3.309   4.563   6.806
 8374SOL    HW237182   3.351   4.424   6.881
 8375SOL     OW37183   2.269   3.978   6.015
 8375SOL    HW137184   2.243   3.985   6.111
 8375SOL    HW237185   2.200   4.022   5.958
 8376SOL     OW37186   3.404   5.482   6.862
 8376SOL    HW137187   3.328   5.478   6.797
 8376SOL    HW237188   3.487   5.450   6.817
 8377SOL     OW37189   3.582   4.262   6.734
 8377SOL    HW137190   3.674   4.303   6.734
 8377SOL    HW237191   3.537   4.281   6.821
 8378SOL     OW37192   3.652   5.423   6.745
 8378SOL    HW137193   3.693   5.445   6.834
 8378SOL    HW237194   3.723   5.404   6.678
 8379SOL     OW37195   2.821   4.164   6.193
 8379SOL    HW137196   2.881   4.203   6.263
 8379SOL    HW237197   2.756   4.233   6.161
 8380SOL     OW37198   3.086   4.770   5.708
 8380SOL    HW137199   3.091   4.688   5.766
 8380SOL    HW237200   3.061   4.743   5.615
 8381SOL     OW37201   3.585   4.386   5.919
 8381SOL    HW137202   3.539   4.298   5.930
 8381SOL    HW237203   3.646   4.402   5.996
 8382SOL     OW37204   2.838   5.419   5.682
 8382SOL    HW137205   2.880   5.371   5.605
 8382SOL    HW237206   2.865   5.375   5.767
 8383SOL     OW37207   2.603   3.737   7.261
 8383SOL    HW137208   2.631   3.645   7.231
 8383SOL    HW237209   2.621   3.747   7.358
 8384SOL     OW37210   3.538   4.348   6.475
 8384SOL    HW137211   3.519   4.446   6.482
 8384SOL    HW237212   3.547   4.309   6.567
 8385SOL     OW37213   2.943   5.038   7.268
 8385SOL    HW137214   3.030   4.988   7.262
 8385SOL    HW237215   2.898   5.037   7.179
 8386SOL     OW37216   2.606   4.863   7.284
 8386SOL    HW137217   2.531   4.930   7.288
 8386SOL    HW237218   2.676   4.887   7.351
 8387SOL     OW37219   3.250   3.656   6.421
 8387SOL    HW137220   3.201   3.742   6.431
 8387SOL    HW237221   3.337   3.672   6.374
 8388SOL     OW37222   3.541   3.887   7.291
 8388SOL    HW137223   3.517   3.908   7.386
 8388SOL    HW237224   3.507   3.796   7.267
 8389SOL     OW37225   1.922   4.411   6.129
 8389SOL    HW137226   1.926   4.341   6.200
 8389SOL    HW237227   1.892   4.497   6.169
 8390SOL     OW37228   2.233   3.929   6.295
 8390SOL    HW137229   2.280   3.975   6.369
 8390SOL    HW237230   2.276   3.840   6.277
 8391SOL     OW37231   2.231   3.961   6.765
 8391SOL    HW137232   2.219   3.863   6.778
 8391SOL    HW237233   2.293   3.977   6.688
 8392SOL     OW37234   2.898   4.493   6.449
 8392SOL    HW137235   2.805   4.493   6.413
 8392SOL    HW237236   2.940   4.403   6.432
 8393SOL     OW37237   2.057   5.221   5.951
 8393SOL    HW137238   2.087   5.127   5.967
 8393SOL    HW237239   2.111   5.260   5.876
 8394SOL     OW37240   3.310   5.029   6.771
 8394SOL    HW137241   3.264   5.064   6.690
 8394SOL    HW237242   3.248   5.031   6.849
 8395SOL     OW37243   2.054   5.317   6.213
 8395SOL    HW137244   1.959   5.330   6.239
 8395SOL    HW237245   2.060   5.294   6.116
 8396SOL     OW37246   3.576   5.078   6.815
 8396SOL    HW137247   3.593   5.134   6.896
 8396SOL    HW237248   3.478   5.059   6.807
 8397SOL     OW37249   2.349   4.668   5.589
 8397SOL    HW137250   2.311   4.715   5.509
 8397SOL    HW237251   2.330   4.722   5.671
 8398SOL     OW37252   2.778   4.822   6.850
 8398SOL    HW137253   2.835   4.748   6.814
 8398SOL    HW237254   2.718   4.855   6.777
 8399SOL     OW37255   1.942   4.490   5.754
 8399SOL    HW137256   2.022   4.431   5.768
 8399SOL    HW237257   1.865   4.454   5.807
 8400SOL     OW37258   3.409   4.600   5.956
 8400SOL    HW137259   3.469   4.521   5.946
 8400SOL    HW237260   3.436   4.671   5.891
 8401SOL     OW37261   2.707   5.538   6.525
 8401SOL    HW137262   2.751   5.452   6.499
 8401SOL    HW237263   2.632   5.519   6.589
 8402SOL     OW37264   2.616   4.600   5.606
 8402SOL    HW137265   2.629   4.507   5.642
 8402SOL    HW237266   2.518   4.617   5.595
 8403SOL     OW37267   3.225   4.123   5.990
 8403SOL    HW137268   3.180   4.193   5.934
 8403SOL    HW237269   3.324   4.138   5.988
 8404SOL     OW37270   2.249   4.365   7.055
 8404SOL    HW137271   2.250   4.306   6.974
 8404SOL    HW237272   2.179   4.332   7.119
 8405SOL     OW37273   2.043   4.004   6.975
 8405SOL    HW137274   2.110   3.990   6.902
 8405SOL    HW237275   1.951   3.984   6.940
 8406SOL     OW37276   2.872   4.592   6.713
 8406SOL    HW137277   2.888   4.562   6.619
 8406SOL    HW237278   2.785   4.555   6.746
 8407SOL     OW37279   3.499   4.137   6.010
 8407SOL    HW137280   3.588   4.098   5.989
 8407SOL    HW237281   3.488   4.144   6.110
 8408SOL     OW37282   2.774   5.275   6.479
 8408SOL    HW137283   2.831   5.233   6.408
 8408SOL    HW237284   2.678   5.269   6.452
 8409SOL     OW37285   2.680   4.068   5.774
 8409SOL    HW137286   2.619   4.066   5.853
 8409SOL    HW237287   2.775   4.067   5.806
 8410SOL     OW37288   2.820   4.995   5.719
 8410SOL    HW137289   2.867   4.978   5.806
 8410SOL    HW237290   2.885   4.985   5.643
 8411SOL     OW37291   3.598   5.307   6.209
 8411SOL    HW137292   3.561   5.396   6.236
 8411SOL    HW237293   3.600   5.301   6.109
 8412SOL     OW37294   3.009   4.609   6.114
 8412SOL    HW137295   3.049   4.634   6.202
 8412SOL    HW237296   2.917   4.648   6.107
 8413SOL     OW37297   2.689   5.346   7.179
 8413SOL    HW137298   2.648   5.290   7.107
 8413SOL    HW237299   2.692   5.294   7.264
 8414SOL     OW37300   3.110   4.653   6.365
 8414SOL    HW137301   3.039   4.590   6.395
 8414SOL    HW237302   3.105   4.737   6.419
 8415SOL     OW37303   2.176   4.794   6.438
 8415SOL    HW137304   2.084   4.832   6.431
 8415SOL    HW237305   2.198   4.779   6.535
 8416SOL     OW37306   2.760   4.714   6.078
 8416SOL    HW137307   2.719   4.645   6.018
 8416SOL    HW237308   2.694   4.740   6.149
 8417SOL     OW37309   3.118   5.060   6.972
 8417SOL    HW137310   3.152   5.153   6.987
 8417SOL    HW237311   3.019   5.060   6.979
 8418SOL     OW37312   1.879   4.043   5.992
 8418SOL    HW137313   1.951   4.050   5.923
 8418SOL    HW237314   1.921   4.027   6.082
 8419SOL     OW37315   3.563   5.474   5.765
 8419SOL    HW137316   3.646   5.529   5.755
 8419SOL    HW237317   3.533   5.443   5.674
 8420SOL     OW37318   2.653   4.496   6.863
 8420SOL    HW137319   2.644   4.559   6.940
 8420SOL    HW237320   2.706   4.415   6.891
 8421SOL     OW37321   1.926   5.501   6.955
 8421SOL    HW137322   1.878   5.588   6.959
 8421SOL    HW237323   1.911   5.450   7.039
 8422SOL     OW37324   2.640   4.515   5.926
 8422SOL    HW137325   2.544   4.542   5.914
 8422SOL    HW237326   2.670   4.464   5.846
 8423SOL     OW37327   2.187   4.258   6.454
 8423SOL    HW137328   2.255   4.245   6.382
 8423SOL    HW237329   2.223   4.227   6.541
 8424SOL     OW37330   2.174   5.434   5.781
 8424SOL    HW137331   2.263   5.468   5.749
 8424SOL    HW237332   2.155   5.470   5.872
 8425SOL     OW37333   3.182   5.451   6.694
 8425SOL    HW137334   3.215   5.467   6.600
 8425SOL    HW237335   3.104   5.389   6.692
 8426SOL     OW37336   1.913   4.889   6.486
 8426SOL    HW137337   1.827   4.887   6.436
 8426SOL    HW237338   1.910   4.821   6.560
 8427SOL     OW37339   2.586   3.769   5.963
 8427SOL    HW137340   2.599   3.757   5.864
 8427SOL    HW237341   2.565   3.865   5.983
 8428SOL     OW37342   1.884   4.856   6.062
 8428SOL    HW137343   1.967   4.911   6.074
 8428SOL    HW237344   1.883   4.818   5.970
 8429SOL     OW37345   3.402   3.990   7.081
 8429SOL    HW137346   3.355   4.078   7.092
 8429SOL    HW237347   3.457   3.971   7.162
 8430SOL     OW37348   3.142   3.910   6.451
 8430SOL    HW137349   3.162   3.974   6.376
 8430SOL    HW237350   3.171   3.949   6.538
 8431SOL     OW37351   3.249   3.818   5.723
 8431SOL    HW137352   3.256   3.722   5.696
 8431SOL    HW237353   3.218   3.824   5.818
 8432SOL     OW37354   3.417   3.706   7.097
 8432SOL    HW137355   3.413   3.660   7.009
 8432SOL    HW237356   3.391   3.802   7.086
 8433SOL     OW37357   2.585   4.026   6.265
 8433SOL    HW137358   2.571   3.945   6.321
 8433SOL    HW237359   2.682   4.051   6.266
 8434SOL     OW37360   3.147   4.320   6.641
 8434SOL    HW137361   3.166   4.361   6.551
 8434SOL    HW237362   3.197   4.371   6.712
 8435SOL     OW37363   3.444   3.746   5.995
 8435SOL    HW137364   3.466   3.707   5.906
 8435SOL    HW237365   3.350   3.779   5.995
 8436SOL     OW37366   2.430   5.098   7.324
 8436SOL    HW137367   2.380   5.160   7.264
 8436SOL    HW237368   2.518   5.139   7.349
 8437SOL     OW37369   2.251   4.795   7.146
 8437SOL    HW137370   2.309   4.771   7.068
 8437SOL    HW237371   2.232   4.893   7.143
 8438SOL     OW37372   1.972   5.091   6.666
 8438SOL    HW137373   1.956   5.028   6.590
 8438SOL    HW237374   1.892   5.091   6.726
 8439SOL     OW37375   2.989   4.239   6.395
 8439SOL    HW137376   3.069   4.194   6.356
 8439SOL    HW237377   2.962   4.193   6.480
 8440SOL     OW37378   3.640   4.266   7.184
 8440SOL    HW137379   3.650   4.366   7.187
 8440SOL    HW237380   3.728   4.225   7.163
 8441SOL     OW37381   3.230   4.057   6.668
 8441SOL    HW137382   3.203   4.152   6.655
 8441SOL    HW237383   3.204   4.027   6.760
 8442SOL     OW37384   3.445   4.188   7.369
 8442SOL    HW137385   3.519   4.213   7.307
 8442SOL    HW237386   3.475   4.113   7.429
 8443SOL     OW37387   3.146   4.562   5.891
 8443SOL    HW137388   3.090   4.581   5.972
 8443SOL    HW237389   3.242   4.577   5.913
 8444SOL     OW37390   3.375   4.663   6.232
 8444SOL    HW137391   3.374   4.648   6.133
 8444SOL    HW237392   3.283   4.649   6.269
 8445SOL     OW37393   3.659   4.534   7.166
 8445SOL    HW137394   3.587   4.601   7.145
 8445SOL    HW237395   3.746   4.582   7.176
 8446SOL     OW37396   3.465   3.999   5.707
 8446SOL    HW137397   3.492   4.024   5.800
 8446SOL    HW237398   3.389   3.935   5.711
 8447SOL     OW37399   2.581   5.207   6.967
 8447SOL    HW137400   2.518   5.282   6.954
 8447SOL    HW237401   2.551   5.128   6.912
 8448SOL     OW37402   2.009   4.000   7.245
 8448SOL    HW137403   2.022   4.000   7.146
 8448SOL    HW237404   1.914   3.977   7.267
 8449SOL     OW37405   1.885   5.363   7.188
 8449SOL    HW137406   1.970   5.382   7.238
 8449SOL    HW237407   1.807   5.384   7.246
 8450SOL     OW37408   1.973   3.995   6.253
 8450SOL    HW137409   1.957   4.089   6.284
 8450SOL    HW237410   2.067   3.968   6.274
 8451SOL     OW37411   3.229   5.308   7.015
 8451SOL    HW137412   3.162   5.365   7.062
 8451SOL    HW237413   3.287   5.365   6.956
 8452SOL     OW37414   2.166   4.337   5.807
 8452SOL    HW137415   2.234   4.357   5.736
 8452SOL    HW237416   2.195   4.378   5.893
 8453SOL     OW37417   3.601   3.925   6.899
 8453SOL    HW137418   3.528   3.954   6.960
 8453SOL    HW237419   3.575   3.941   6.804
 8454SOL     OW37420   2.255   5.512   6.268
 8454SOL    HW137421   2.181   5.447   6.254
 8454SOL    HW237422   2.311   5.518   6.185
 8455SOL     OW37423   2.208   5.019   6.795
 8455SOL    HW137424   2.198   5.034   6.893
 8455SOL    HW237425   2.127   5.054   6.747
 8456SOL     OW37426   2.992   5.297   7.362
 8456SOL    HW137427   2.965   5.204   7.336
 8456SOL    HW237428   3.011   5.351   7.281
 8457SOL     OW37429   2.598   4.986   6.020
 8457SOL    HW137430   2.615   4.924   5.944
 8457SOL    HW237431   2.600   4.935   6.106
 8458SOL     OW37432   2.232   4.548   6.322
 8458SOL    HW137433   2.223   4.641   6.357
 8458SOL    HW237434   2.295   4.497   6.381
 8459SOL     OW37435   2.097   4.073   5.823
 8459SOL    HW137436   2.134   4.024   5.744
 8459SOL    HW237437   2.114   4.171   5.812
 8460SOL     OW37438   1.933   4.247   6.351
 8460SOL    HW137439   1.864   4.300   6.400
 8460SOL    HW237440   2.022   4.258   6.395
 8461SOL     OW37441   2.342   4.836   5.812
 8461SOL    HW137442   2.442   4.838   5.810
 8461SOL    HW237443   2.306   4.923   5.778
 8462SOL     OW37444   2.962   4.356   5.595
 8462SOL    HW137445   2.928   4.432   5.540
 8462SOL    HW237446   3.033   4.307   5.544
 8463SOL     OW37447   2.706   4.351   5.709
 8463SOL    HW137448   2.799   4.353   5.674
 8463SOL    HW237449   2.675   4.256   5.718
 8464SOL     OW37450   3.184   3.855   5.986
 8464SOL    HW137451   3.098   3.838   6.034
 8464SOL    HW237452   3.205   3.952   5.988
 8465SOL     OW37453   3.230   4.207   7.092
 8465SOL    HW137454   3.195   4.222   7.185
 8465SOL    HW237455   3.164   4.153   7.040
 8466SOL     OW37456   2.197   4.757   6.711
 8466SOL    HW137457   2.214   4.692   6.785
 8466SOL    HW237458   2.211   4.850   6.744
 8467SOL     OW37459   3.500   4.756   5.752
 8467SOL    HW137460   3.599   4.765   5.763
 8467SOL    HW237461   3.476   4.763   5.655
 8468SOL     OW37462   2.454   4.407   6.695
 8468SOL    HW137463   2.516   4.446   6.764
 8468SOL    HW237464   2.381   4.357   6.741
 8469SOL     OW37465   2.641   4.697   7.065
 8469SOL    HW137466   2.707   4.742   7.005
 8469SOL    HW237467   2.633   4.748   7.151
 8470SOL     OW37468   3.045   4.639   7.137
 8470SOL    HW137469   3.024   4.573   7.065
 8470SOL    HW237470   3.108   4.599   7.202
 8471SOL     OW37471   2.935   3.931   6.112
 8471SOL    HW137472   2.896   4.020   6.134
 8471SOL    HW237473   2.920   3.868   6.188
 8472SOL     OW37474   3.044   5.456   7.146
 8472SOL    HW137475   2.967   5.486   7.090
 8472SOL    HW237476   3.085   5.535   7.192
 8473SOL     OW37477   2.518   3.814   6.420
 8473SOL    HW137478   2.461   3.751   6.367
 8473SOL    HW237479   2.595   3.764   6.458
 8474SOL     OW37480   2.158   5.489   6.806
 8474SOL    HW137481   2.128   5.442   6.723
 8474SOL    HW237482   2.081   5.494   6.870
 8475SOL     OW37483   2.817   4.930   6.408
 8475SOL    HW137484   2.848   5.011   6.359
 8475SOL    HW237485   2.894   4.886   6.453
 8476SOL     OW37486   2.530   4.637   6.493
 8476SOL    HW137487   2.573   4.564   6.440
 8476SOL    HW237488   2.480   4.598   6.570
 8477SOL     OW37489   1.930   4.694   6.676
 8477SOL    HW137490   2.024   4.714   6.704
 8477SOL    HW237491   1.930   4.625   6.604
 8478SOL     OW37492   2.121   3.748   5.942
 8478SOL    HW137493   2.194   3.816   5.953
 8478SOL    HW237494   2.075   3.734   6.030
 8479SOL     OW37495   1.925   4.765   5.805
 8479SOL    HW137496   1.948   4.670   5.785
 8479SOL    HW237497   1.975   4.826   5.743
 8480SOL     OW37498   3.617   3.931   6.403
 8480SOL    HW137499   3.585   3.950   6.496
 8480SOL    HW237500   3.716   3.917   6.405
 8481SOL     OW37501   2.633   4.873   6.612
 8481SOL    HW137502   2.593   4.789   6.575
 8481SOL    HW237503   2.698   4.911   6.546
 8482SOL     OW37504   3.075   4.302   5.839
 8482SOL    HW137505   3.103   4.392   5.873
 8482SOL    HW237506   3.032   4.312   5.750
 8483SOL     OW37507   3.384   5.168   7.189
 8483SOL    HW137508   3.342   5.083   7.220
 8483SOL    HW237509   3.322   5.214   7.125
 8484SOL     OW37510   2.123   4.564   6.909
 8484SOL    HW137511   2.180   4.500   6.959
 8484SOL    HW237512   2.065   4.615   6.973
 8485SOL     OW37513   2.662   5.173   5.571
 8485SOL    HW137514   2.617   5.235   5.635
 8485SOL    HW237515   2.724   5.112   5.620
 8486SOL     OW37516   2.481   5.415   6.623
 8486SOL    HW137517   2.482   5.369   6.535
 8486SOL    HW237518   2.404   5.381   6.677
 8487SOL     OW37519   2.594   4.824   6.279
 8487SOL    HW137520   2.673   4.871   6.318
 8487SOL    HW237521   2.558   4.758   6.345
 8488SOL     OW37522   2.784   5.203   6.051
 8488SOL    HW137523   2.855   5.207   5.981
 8488SOL    HW237524   2.725   5.124   6.033
 8489SOL     OW37525   1.982   4.532   6.457
 8489SOL    HW137526   2.070   4.518   6.410
 8489SOL    HW237527   1.916   4.570   6.392
 8490SOL     OW37528   1.884   4.613   7.365
 8490SOL    HW137529   1.784   4.617   7.355
 8490SOL    HW237530   1.907   4.560   7.447
 8491SOL     OW37531   2.815   5.507   6.992
 8491SOL    HW137532   2.776   5.444   7.059
 8491SOL    HW237533   2.744   5.570   6.959
 8492SOL     OW37534   3.047   4.853   6.548
 8492SOL    HW137535   3.080   4.947   6.557
 8492SOL    HW237536   3.058   4.805   6.635
 8493SOL     OW37537   2.389   4.091   7.301
 8493SOL    HW137538   2.458   4.055   7.237
 8493SOL    HW237539   2.387   4.191   7.294
 8494SOL     OW37540   2.379   4.582   5.914
 8494SOL    HW137541   2.352   4.674   5.886
 8494SOL    HW237542   2.307   4.542   5.970
 8495SOL     OW37543   3.488   4.618   6.556
 8495SOL    HW137544   3.487   4.695   6.493
 8495SOL    HW237545   3.434   4.641   6.637
 8496SOL     OW37546   3.168   3.984   6.923
 8496SOL    HW137547   3.250   3.967   6.978
 8496SOL    HW237548   3.119   3.898   6.910
 8497SOL     OW37549   1.923   3.737   6.140
 8497SOL    HW137550   1.873   3.742   6.053
 8497SOL    HW237551   1.921   3.827   6.184
 8498SOL     OW37552   3.131   3.835   7.316
 8498SOL    HW137553   3.186   3.809   7.395
 8498SOL    HW237554   3.088   3.924   7.333
 8499SOL     OW37555   2.288   5.286   7.173
 8499SOL    HW137556   2.229   5.347   7.226
 8499SOL    HW237557   2.330   5.338   7.098
 8500SOL     OW37558   3.620   5.201   7.059
 8500SOL    HW137559   3.673   5.272   7.105
 8500SOL    HW237560   3.535   5.185   7.109
 8501SOL     OW37561   2.877   4.241   6.673
 8501SOL    HW137562   2.972   4.272   6.666
 8501SOL    HW237563   2.850   4.239   6.769
 8502SOL     OW37564   2.304   5.192   6.226
 8502SOL    HW137565   2.304   5.093   6.235
 8502SOL    HW237566   2.210   5.227   6.232
 8503SOL     OW37567   2.948   5.296   6.691
 8503SOL    HW137568   2.897   5.309   6.777
 8503SOL    HW237569   2.884   5.291   6.615
 8504SOL     OW37570   2.109   5.449   7.318
 8504SOL    HW137571   2.083   5.542   7.293
 8504SOL    HW237572   2.120   5.443   7.417
 8505SOL     OW37573   1.960   4.958   7.198
 8505SOL    HW137574   1.949   4.863   7.168
 8505SOL    HW237575   1.886   5.014   7.160
 8506SOL     OW37576   2.043   5.349   6.593
 8506SOL    HW137577   2.022   5.254   6.617
 8506SOL    HW237578   2.060   5.355   6.494
 8507SOL     OW37579   2.893   3.824   6.363
 8507SOL    HW137580   2.979   3.850   6.406
 8507SOL    HW237581   2.834   3.780   6.431
 8508SOL     OW37582   2.919   4.922   5.967
 8508SOL    HW137583   3.011   4.925   6.007
 8508SOL    HW237584   2.868   4.846   6.007
 8509SOL     OW37585   3.475   4.145   6.290
 8509SOL    HW137586   3.494   4.226   6.346
 8509SOL    HW237587   3.529   4.068   6.323
 8510SOL     OW37588   2.614   4.829   5.781
 8510SOL    HW137589   2.687   4.893   5.756
 8510SOL    HW237590   2.629   4.742   5.734
 8511SOL     OW37591   2.643   3.805   5.683
 8511SOL    HW137592   2.726   3.749   5.687
 8511SOL    HW237593   2.665   3.900   5.706
 8512SOL     OW37594   2.389   4.221   6.277
 8512SOL    HW137595   2.453   4.145   6.286
 8512SOL    HW237596   2.423   4.285   6.208
 8513SOL     OW37597   2.416   4.769   6.933
 8513SOL    HW137598   2.499   4.736   6.978
 8513SOL    HW237599   2.436   4.857   6.888
 8514SOL     OW37600   3.645   4.833   6.919
 8514SOL    HW137601   3.619   4.920   6.876
 8514SOL    HW237602   3.676   4.770   6.848
 8515SOL     OW37603   2.050   4.940   5.638
 8515SOL    HW137604   2.019   4.965   5.546
 8515SOL    HW237605   2.123   5.003   5.666
 8516SOL     OW37606   2.505   5.313   5.738
 8516SOL    HW137607   2.466   5.404   5.725
 8516SOL    HW237608   2.477   5.278   5.828
 8517SOL     OW37609   3.220   4.804   7.010
 8517SOL    HW137610   3.156   4.747   7.062
 8517SOL    HW237611   3.185   4.898   7.007
 8518SOL     OW37612   2.392   5.422   6.949
 8518SOL    HW137613   2.453   5.501   6.947
 8518SOL    HW237614   2.308   5.443   6.898
 8519SOL     OW37615   2.076   4.270   7.259
 8519SOL    HW137616   2.063   4.171   7.261
 8519SOL    HW237617   2.147   4.295   7.325
 8520SOL     OW37618   3.507   5.228   6.592
 8520SOL    HW137619   3.540   5.319   6.616
 8520SOL    HW237620   3.531   5.163   6.663
 8521SOL     OW37621   1.834   4.643   6.240
 8521SOL    HW137622   1.865   4.721   6.186
 8521SOL    HW237623   1.734   4.641   6.242
 8522SOL     OW37624   2.493   4.449   7.159
 8522SOL    HW137625   2.402   4.427   7.124
 8522SOL    HW237626   2.516   4.544   7.136
 8523SOL     OW37627   3.477   4.854   6.402
 8523SOL    HW137628   3.458   4.951   6.386
 8523SOL    HW237629   3.435   4.800   6.330
 8524SOL     OW37630   2.613   4.228   6.560
 8524SOL    HW137631   2.705   4.223   6.598
 8524SOL    HW237632   2.558   4.293   6.613
 8525SOL     OW37633   2.484   5.006   6.804
 8525SOL    HW137634   2.387   5.021   6.783
 8525SOL    HW237635   2.530   4.970   6.723
 8526SOL     OW37636   2.034   4.394   6.707
 8526SOL    HW137637   2.056   4.465   6.774
 8526SOL    HW237638   2.027   4.435   6.616
 8527SOL     OW37639   2.179   5.058   7.066
 8527SOL    HW137640   2.218   5.142   7.104
 8527SOL    HW237641   2.095   5.036   7.115
 8528SOL     OW37642   3.478   5.393   7.324
 8528SOL    HW137643   3.445   5.305   7.290
 8528SOL    HW237644   3.452   5.465   7.260
 8529SOL     OW37645   3.191   4.938   6.040
 8529SOL    HW137646   3.284   4.934   6.079
 8529SOL    HW237647   3.197   4.955   5.942
 8530SOL     OW37648   2.528   4.052   6.003
 8530SOL    HW137649   2.431   4.029   5.993
 8530SOL    HW237650   2.555   4.039   6.098
 8531SOL     OW37651   3.476   3.727   6.273
 8531SOL    HW137652   3.463   3.748   6.176
 8531SOL    HW237653   3.528   3.800   6.317
 8532SOL     OW37654   3.020   4.476   6.916
 8532SOL    HW137655   3.117   4.466   6.896
 8532SOL    HW237656   2.975   4.523   6.840
 8533SOL     OW37657   2.639   4.422   6.362
 8533SOL    HW137658   2.626   4.345   6.424
 8533SOL    HW237659   2.624   4.392   6.268
 8534SOL     OW37660   3.126   5.114   6.581
 8534SOL    HW137661   3.062   5.173   6.629
 8534SOL    HW237662   3.150   5.154   6.493
 8535SOL     OW37663   3.202   4.112   6.271
 8535SOL    HW137664   3.185   4.113   6.173
 8535SOL    HW237665   3.299   4.126   6.288
 8536SOL     OW37666   2.922   5.148   8.147
 8536SOL    HW137667   3.015   5.186   8.149
 8536SOL    HW237668   2.878   5.170   8.060
 8537SOL     OW37669   3.377   5.082   7.896
 8537SOL    HW137670   3.394   5.089   7.995
 8537SOL    HW237671   3.440   5.143   7.848
 8538SOL     OW37672   3.461   4.358   8.767
 8538SOL    HW137673   3.395   4.304   8.819
 8538SOL    HW237674   3.516   4.413   8.831
 8539SOL     OW37675   2.217   3.903   7.388
 8539SOL    HW137676   2.134   3.925   7.336
 8539SOL    HW237677   2.291   3.965   7.361
 8540SOL     OW37678   3.174   5.256   8.189
 8540SOL    HW137679   3.189   5.354   8.205
 8540SOL    HW237680   3.262   5.211   8.175
 8541SOL     OW37681   3.059   3.751   8.685
 8541SOL    HW137682   2.976   3.715   8.728
 8541SOL    HW237683   3.090   3.687   8.615
 8542SOL     OW37684   2.815   4.576   9.104
 8542SOL    HW137685   2.802   4.494   9.047
 8542SOL    HW237686   2.731   4.594   9.155
 8543SOL     OW37687   2.400   5.173   7.793
 8543SOL    HW137688   2.356   5.203   7.878
 8543SOL    HW237689   2.474   5.109   7.815
 8544SOL     OW37690   2.383   3.724   7.529
 8544SOL    HW137691   2.479   3.750   7.528
 8544SOL    HW237692   2.330   3.791   7.477
 8545SOL     OW37693   3.425   4.747   8.913
 8545SOL    HW137694   3.329   4.764   8.890
 8545SOL    HW237695   3.482   4.770   8.834
 8546SOL     OW37696   3.245   4.751   8.575
 8546SOL    HW137697   3.185   4.756   8.655
 8546SOL    HW237698   3.296   4.837   8.566
 8547SOL     OW37699   2.308   4.919   8.068
 8547SOL    HW137700   2.262   4.872   8.144
 8547SOL    HW237701   2.405   4.896   8.070
 8548SOL     OW37702   2.546   4.302   7.952
 8548SOL    HW137703   2.572   4.372   7.885
 8548SOL    HW237704   2.531   4.215   7.904
 8549SOL     OW37705   3.109   4.245   9.120
 8549SOL    HW137706   3.203   4.228   9.147
 8549SOL    HW237707   3.053   4.165   9.140
 8550SOL     OW37708   2.278   5.066   7.555
 8550SOL    HW137709   2.332   5.086   7.473
 8550SOL    HW237710   2.317   5.115   7.633
 8551SOL     OW37711   2.343   3.966   8.384
 8551SOL    HW137712   2.369   4.047   8.332
 8551SOL    HW237713   2.392   3.886   8.349
 8552SOL     OW37714   2.171   4.456   7.878
 8552SOL    HW137715   2.211   4.486   7.965
 8552SOL    HW237716   2.073   4.442   7.890
 8553SOL     OW37717   2.621   5.407   8.005
 8553SOL    HW137718   2.683   5.339   7.969
 8553SOL    HW237719   2.608   5.481   7.938
 8554SOL     OW37720   3.548   5.276   7.776
 8554SOL    HW137721   3.643   5.246   7.769
 8554SOL    HW237722   3.528   5.342   7.703
 8555SOL     OW37723   3.485   4.033   8.513
 8555SOL    HW137724   3.533   4.120   8.518
 8555SOL    HW237725   3.387   4.048   8.505
 8556SOL     OW37726   2.927   4.069   7.785
 8556SOL    HW137727   2.888   4.142   7.842
 8556SOL    HW237728   2.917   3.981   7.832
 8557SOL     OW37729   2.037   4.683   8.974
 8557SOL    HW137730   2.128   4.719   8.994
 8557SOL    HW237731   1.991   4.657   9.059
 8558SOL     OW37732   2.293   4.371   7.416
 8558SOL    HW137733   2.277   4.466   7.389
 8558SOL    HW237734   2.389   4.359   7.441
 8559SOL     OW37735   2.512   5.288   8.221
 8559SOL    HW137736   2.563   5.337   8.150
 8559SOL    HW237737   2.431   5.245   8.180
 8560SOL     OW37738   2.833   4.322   8.974
 8560SOL    HW137739   2.872   4.248   9.030
 8560SOL    HW237740   2.906   4.362   8.918
 8561SOL     OW37741   3.435   5.138   8.174
 8561SOL    HW137742   3.453   5.147   8.272
 8561SOL    HW237743   3.490   5.206   8.124
 8562SOL     OW37744   2.126   4.979   7.862
 8562SOL    HW137745   2.193   4.955   7.932
 8562SOL    HW237746   2.142   4.924   7.780
 8563SOL     OW37747   3.114   4.014   7.567
 8563SOL    HW137748   3.149   3.924   7.590
 8563SOL    HW237749   3.034   4.035   7.624
 8564SOL     OW37750   2.234   4.232   8.582
 8564SOL    HW137751   2.221   4.136   8.607
 8564SOL    HW237752   2.145   4.278   8.580
 8565SOL     OW37753   3.241   4.482   8.661
 8565SOL    HW137754   3.259   4.574   8.627
 8565SOL    HW237755   3.326   4.441   8.694
 8566SOL     OW37756   2.246   3.990   7.848
 8566SOL    HW137757   2.189   4.027   7.921
 8566SOL    HW237758   2.203   4.008   7.759
 8567SOL     OW37759   3.418   5.426   8.702
 8567SOL    HW137760   3.345   5.440   8.636
 8567SOL    HW237761   3.505   5.411   8.654
 8568SOL     OW37762   3.609   4.277   8.557
 8568SOL    HW137763   3.703   4.310   8.565
 8568SOL    HW237764   3.557   4.306   8.637
 8569SOL     OW37765   3.665   5.401   8.561
 8569SOL    HW137766   3.699   5.449   8.642
 8569SOL    HW237767   3.742   5.379   8.501
 8570SOL     OW37768   2.819   4.237   7.964
 8570SOL    HW137769   2.873   4.257   8.046
 8570SOL    HW237770   2.725   4.266   7.978
 8571SOL     OW37771   3.088   4.668   7.505
 8571SOL    HW137772   3.126   4.651   7.597
 8571SOL    HW237773   3.061   4.581   7.464
 8572SOL     OW37774   2.919   4.050   9.167
 8572SOL    HW137775   2.939   4.032   9.263
 8572SOL    HW237776   2.830   4.010   9.144
 8573SOL     OW37777   2.828   5.474   7.521
 8573SOL    HW137778   2.866   5.423   7.443
 8573SOL    HW237779   2.838   5.419   7.604
 8574SOL     OW37780   2.658   3.783   9.095
 8574SOL    HW137781   2.676   3.687   9.072
 8574SOL    HW237782   2.661   3.794   9.195
 8575SOL     OW37783   3.531   4.364   8.311
 8575SOL    HW137784   3.487   4.455   8.311
 8575SOL    HW237785   3.549   4.336   8.405
 8576SOL     OW37786   2.929   4.996   9.136
 8576SOL    HW137787   2.990   4.919   9.118
 8576SOL    HW237788   2.848   4.988   9.079
 8577SOL     OW37789   2.520   4.866   9.153
 8577SOL    HW137790   2.485   4.956   9.182
 8577SOL    HW237791   2.552   4.816   9.234
 8578SOL     OW37792   3.177   3.681   8.258
 8578SOL    HW137793   3.143   3.775   8.264
 8578SOL    HW237794   3.268   3.682   8.216
 8579SOL     OW37795   3.579   3.939   9.187
 8579SOL    HW137796   3.516   3.984   9.251
 8579SOL    HW237797   3.627   3.865   9.234
 8580SOL     OW37798   1.913   4.424   7.968
 8580SOL    HW137799   1.929   4.357   8.039
 8580SOL    HW237800   1.885   4.511   8.009
 8581SOL     OW37801   2.120   3.884   8.230
 8581SOL    HW137802   2.185   3.921   8.297
 8581SOL    HW237803   2.149   3.793   8.201
 8582SOL     OW37804   2.208   3.948   8.623
 8582SOL    HW137805   2.193   3.851   8.643
 8582SOL    HW237806   2.261   3.957   8.538
 8583SOL     OW37807   2.904   4.485   8.359
 8583SOL    HW137808   2.809   4.463   8.381
 8583SOL    HW237809   2.934   4.430   8.281
 8584SOL     OW37810   2.044   5.237   7.790
 8584SOL    HW137811   2.072   5.143   7.810
 8584SOL    HW237812   2.095   5.271   7.711
 8585SOL     OW37813   3.325   5.021   8.606
 8585SOL    HW137814   3.298   5.078   8.528
 8585SOL    HW237815   3.256   5.028   8.678
 8586SOL     OW37816   2.053   5.327   8.058
 8586SOL    HW137817   1.957   5.336   8.085
 8586SOL    HW237818   2.058   5.314   7.959
 8587SOL     OW37819   3.587   5.063   8.674
 8587SOL    HW137820   3.603   5.106   8.763
 8587SOL    HW237821   3.488   5.052   8.661
 8588SOL     OW37822   2.300   4.642   7.373
 8588SOL    HW137823   2.284   4.696   7.290
 8588SOL    HW237824   2.308   4.704   7.451
 8589SOL     OW37825   1.930   4.483   7.601
 8589SOL    HW137826   2.002   4.414   7.605
 8589SOL    HW237827   1.851   4.452   7.653
 8590SOL     OW37828   2.718   5.499   8.418
 8590SOL    HW137829   2.759   5.412   8.389
 8590SOL    HW237830   2.642   5.480   8.481
 8591SOL     OW37831   2.540   4.488   7.503
 8591SOL    HW137832   2.470   4.515   7.569
 8591SOL    HW237833   2.528   4.540   7.419
 8592SOL     OW37834   3.188   4.125   7.858
 8592SOL    HW137835   3.093   4.122   7.827
 8592SOL    HW237836   3.243   4.178   7.794
 8593SOL     OW37837   2.107   4.295   8.901
 8593SOL    HW137838   2.078   4.208   8.861
 8593SOL    HW237839   2.077   4.299   8.997
 8594SOL     OW37840   2.024   4.044   8.810
 8594SOL    HW137841   2.093   4.009   8.748
 8594SOL    HW237842   1.933   4.014   8.780
 8595SOL     OW37843   2.770   5.236   8.356
 8595SOL    HW137844   2.830   5.203   8.283
 8595SOL    HW237845   2.675   5.231   8.326
 8596SOL     OW37846   2.687   4.022   7.646
 8596SOL    HW137847   2.622   4.038   7.721
 8596SOL    HW237848   2.778   4.054   7.674
 8597SOL     OW37849   2.800   4.964   7.497
 8597SOL    HW137850   2.853   4.944   7.580
 8597SOL    HW237851   2.864   4.982   7.422
 8598SOL     OW37852   3.567   5.336   8.045
 8598SOL    HW137853   3.536   5.426   8.077
 8598SOL    HW237854   3.555   5.330   7.946
 8599SOL     OW37855   3.024   4.570   7.958
 8599SOL    HW137856   3.071   4.585   8.045
 8599SOL    HW237857   2.934   4.614   7.961
 8600SOL     OW37858   2.717   5.314   9.020
 8600SOL    HW137859   2.661   5.266   8.953
 8600SOL    HW237860   2.714   5.265   9.107
 8601SOL     OW37861   3.179   4.634   8.182
 8601SOL    HW137862   3.259   4.609   8.237
 8601SOL    HW237863   3.115   4.685   8.238
 8602SOL     OW37864   2.176   4.787   8.271
 8602SOL    HW137865   2.085   4.827   8.270
 8602SOL    HW237866   2.198   4.755   8.364
 8603SOL     OW37867   2.771   4.695   7.920
 8603SOL    HW137868   2.723   4.618   7.879
 8603SOL    HW237869   2.714   4.737   7.990
 8604SOL     OW37870   3.113   5.070   8.769
 8604SOL    HW137871   3.156   5.148   8.813
 8604SOL    HW237872   3.032   5.101   8.718
 8605SOL     OW37873   1.902   4.040   7.809
 8605SOL    HW137874   1.964   4.043   7.730
 8605SOL    HW237875   1.955   4.054   7.893
 8606SOL     OW37876   3.514   5.476   7.581
 8606SOL    HW137877   3.604   5.520   7.586
 8606SOL    HW237878   3.502   5.435   7.491
 8607SOL     OW37879   2.686   4.453   8.762
 8607SOL    HW137880   2.749   4.524   8.732
 8607SOL    HW237881   2.733   4.394   8.828
 8608SOL     OW37882   1.946   5.513   8.810
 8608SOL    HW137883   1.973   5.606   8.835
 8608SOL    HW237884   1.928   5.460   8.893
 8609SOL     OW37885   2.618   4.508   7.781
 8609SOL    HW137886   2.523   4.536   7.769
 8609SOL    HW237887   2.655   4.478   7.693
 8610SOL     OW37888   2.194   4.259   8.304
 8610SOL    HW137889   2.269   4.222   8.250
 8610SOL    HW237890   2.218   4.256   8.401
 8611SOL     OW37891   2.150   5.450   7.603
 8611SOL    HW137892   2.240   5.480   7.571
 8611SOL    HW237893   2.139   5.477   7.699
 8612SOL     OW37894   3.218   5.441   8.517
 8612SOL    HW137895   3.230   5.480   8.426
 8612SOL    HW237896   3.199   5.343   8.510
 8613SOL     OW37897   1.920   4.887   8.336
 8613SOL    HW137898   1.833   4.888   8.287
 8613SOL    HW237899   1.914   4.823   8.413
 8614SOL     OW37900   2.650   3.763   7.819
 8614SOL    HW137901   2.645   3.740   7.722
 8614SOL    HW237902   2.598   3.846   7.837
 8615SOL     OW37903   1.869   4.860   7.907
 8615SOL    HW137904   1.946   4.922   7.919
 8615SOL    HW237905   1.874   4.818   7.816
 8616SOL     OW37906   3.430   3.988   8.958
 8616SOL    HW137907   3.386   4.078   8.963
 8616SOL    HW237908   3.486   3.974   9.040
 8617SOL     OW37909   3.101   3.948   8.293
 8617SOL    HW137910   3.132   4.010   8.221
 8617SOL    HW237911   3.136   3.978   8.381
 8618SOL     OW37912   3.264   3.758   7.552
 8618SOL    HW137913   3.357   3.721   7.549
 8618SOL    HW237914   3.200   3.685   7.576
 8619SOL     OW37915   3.410   3.710   8.966
 8619SOL    HW137916   3.398   3.681   8.872
 8619SOL    HW237917   3.410   3.810   8.971
 8620SOL     OW37918   2.596   3.952   8.119
 8620SOL    HW137919   2.542   3.878   8.158
 8620SOL    HW237920   2.692   3.940   8.144
 8621SOL     OW37921   3.077   4.324   8.512
 8621SOL    HW137922   3.021   4.388   8.459
 8621SOL    HW237923   3.139   4.375   8.571
 8622SOL     OW37924   3.409   3.734   7.878
 8622SOL    HW137925   3.441   3.698   7.790
 8622SOL    HW237926   3.317   3.772   7.866
 8623SOL     OW37927   2.432   5.125   9.191
 8623SOL    HW137928   2.391   5.179   9.118
 8623SOL    HW237929   2.522   5.162   9.214
 8624SOL     OW37930   2.291   4.795   9.017
 8624SOL    HW137931   2.264   4.876   8.966
 8624SOL    HW237932   2.381   4.809   9.058
 8625SOL     OW37933   1.983   5.081   8.522
 8625SOL    HW137934   1.966   5.020   8.444
 8625SOL    HW237935   1.902   5.084   8.580
 8626SOL     OW37936   2.959   4.264   8.199
 8626SOL    HW137937   3.050   4.230   8.175
 8626SOL    HW237938   2.922   4.212   8.276
 8627SOL     OW37939   3.605   4.332   9.115
 8627SOL    HW137940   3.599   4.403   9.045
 8627SOL    HW237941   3.701   4.318   9.140
 8628SOL     OW37942   3.207   4.076   8.516
 8628SOL    HW137943   3.168   4.168   8.512
 8628SOL    HW237944   3.201   4.041   8.609
 8629SOL     OW37945   3.371   4.198   9.176
 8629SOL    HW137946   3.455   4.247   9.154
 8629SOL    HW237947   3.385   4.142   9.257
 8630SOL     OW37948   3.192   4.649   7.763
 8630SOL    HW137949   3.130   4.604   7.827
 8630SOL    HW237950   3.189   4.748   7.777
 8631SOL     OW37951   3.367   4.696   7.986
 8631SOL    HW137952   3.336   4.669   7.895
 8631SOL    HW237953   3.296   4.673   8.053
 8632SOL     OW37954   3.603   4.532   8.922
 8632SOL    HW137955   3.536   4.606   8.913
 8632SOL    HW237956   3.695   4.571   8.924
 8633SOL     OW37957   3.468   3.962   7.542
 8633SOL    HW137958   3.524   3.956   7.625
 8633SOL    HW237959   3.379   3.921   7.560
 8634SOL     OW37960   2.564   5.222   8.814
 8634SOL    HW137961   2.498   5.298   8.807
 8634SOL    HW237962   2.546   5.156   8.741
 8635SOL     OW37963   1.985   3.989   9.083
 8635SOL    HW137964   1.994   4.003   8.984
 8635SOL    HW237965   1.891   3.962   9.104
 8636SOL     OW37966   1.907   5.377   9.045
 8636SOL    HW137967   1.990   5.394   9.098
 8636SOL    HW237968   1.827   5.388   9.104
 8637SOL     OW37969   2.055   4.058   8.034
 8637SOL    HW137970   2.016   4.138   8.080
 8637SOL    HW237971   2.080   3.989   8.101
 8638SOL     OW37972   3.250   5.278   8.877
 8638SOL    HW137973   3.187   5.341   8.922
 8638SOL    HW237974   3.313   5.330   8.819
 8639SOL     OW37975   2.142   4.301   7.636
 8639SOL    HW137976   2.202   4.331   7.562
 8639SOL    HW237977   2.169   4.347   7.721
 8640SOL     OW37978   3.601   3.934   8.745
 8640SOL    HW137979   3.540   3.958   8.821
 8640SOL    HW237980   3.561   3.964   8.659
 8641SOL     OW37981   2.277   5.502   8.122
 8641SOL    HW137982   2.192   5.453   8.102
 8641SOL    HW237983   2.346   5.478   8.053
 8642SOL     OW37984   2.215   4.970   8.636
 8642SOL    HW137985   2.217   4.992   8.734
 8642SOL    HW237986   2.137   5.016   8.594
 8643SOL     OW37987   3.014   5.259   9.211
 8643SOL    HW137988   2.985   5.167   9.185
 8643SOL    HW237989   3.030   5.313   9.128
 8644SOL     OW37990   2.595   4.992   7.869
 8644SOL    HW137991   2.607   4.931   7.791
 8644SOL    HW237992   2.598   4.939   7.953
 8645SOL     OW37993   2.244   4.549   8.130
 8645SOL    HW137994   2.229   4.638   8.173
 8645SOL    HW237995   2.332   4.511   8.160
 8646SOL     OW37996   2.099   4.030   7.612
 8646SOL    HW137997   2.147   3.990   7.534
 8646SOL    HW237998   2.110   4.130   7.610
 8647SOL     OW37999   1.951   4.260   8.180
 8647SOL    HW138000   1.875   4.298   8.233
 8647SOL    HW238001   2.035   4.265   8.234
 8648SOL     OW38002   2.349   4.805   7.596
 8648SOL    HW138003   2.447   4.813   7.613
 8648SOL    HW238004   2.311   4.896   7.579
 8649SOL     OW38005   3.162   3.846   7.856
 8649SOL    HW138006   3.068   3.828   7.887
 8649SOL    HW238007   3.181   3.943   7.864
 8650SOL     OW38008   3.261   4.216   8.882
 8650SOL    HW138009   3.202   4.248   8.956
 8650SOL    HW238010   3.217   4.140   8.836
 8651SOL     OW38011   1.946   3.770   7.558
 8651SOL    HW138012   2.019   3.706   7.583
 8651SOL    HW238013   1.977   3.863   7.573
 8652SOL     OW38014   2.205   4.709   8.540
 8652SOL    HW138015   2.199   4.644   8.615
 8652SOL    HW238016   2.216   4.802   8.577
 8653SOL     OW38017   3.414   4.828   7.596
 8653SOL    HW138018   3.463   4.789   7.673
 8653SOL    HW238019   3.430   4.772   7.514
 8654SOL     OW38020   2.491   4.365   8.576
 8654SOL    HW138021   2.541   4.390   8.658
 8654SOL    HW238022   2.405   4.320   8.601
 8655SOL     OW38023   3.029   4.742   9.057
 8655SOL    HW138024   2.946   4.689   9.074
 8655SOL    HW238025   3.109   4.688   9.084
 8656SOL     OW38026   2.893   3.839   7.934
 8656SOL    HW138027   2.882   3.842   8.033
 8656SOL    HW238028   2.813   3.797   7.892
 8657SOL     OW38029   3.059   5.431   8.998
 8657SOL    HW138030   2.988   5.453   8.931
 8657SOL    HW238031   3.088   5.515   9.044
 8658SOL     OW38032   2.456   3.756   8.244
 8658SOL    HW138033   2.382   3.700   8.207
 8658SOL    HW238034   2.529   3.698   8.278
 8659SOL     OW38035   2.162   5.498   8.640
 8659SOL    HW138036   2.138   5.444   8.559
 8659SOL    HW238037   2.087   5.496   8.705
 8660SOL     OW38038   2.824   4.911   8.248
 8660SOL    HW138039   2.866   4.994   8.212
 8660SOL    HW238040   2.894   4.854   8.291
 8661SOL     OW38041   2.485   4.685   8.317
 8661SOL    HW138042   2.502   4.597   8.271
 8661SOL    HW238043   2.422   4.671   8.393
 8662SOL     OW38044   1.913   4.703   8.538
 8662SOL    HW138045   2.008   4.678   8.524
 8662SOL    HW238046   1.854   4.640   8.487
 8663SOL     OW38047   2.151   3.730   7.872
 8663SOL    HW138048   2.192   3.821   7.863
 8663SOL    HW238049   2.052   3.740   7.885
 8664SOL     OW38050   2.565   4.314   9.060
 8664SOL    HW138051   2.503   4.332   8.983
 8664SOL    HW238052   2.659   4.309   9.026
 8665SOL     OW38053   1.930   4.762   7.653
 8665SOL    HW138054   1.948   4.666   7.632
 8665SOL    HW238055   1.973   4.820   7.584
 8666SOL     OW38056   3.599   3.856   8.333
 8666SOL    HW138057   3.551   3.917   8.396
 8666SOL    HW238058   3.666   3.908   8.281
 8667SOL     OW38059   2.604   4.911   8.425
 8667SOL    HW138060   2.561   4.829   8.388
 8667SOL    HW238061   2.690   4.928   8.376
 8668SOL     OW38062   3.397   5.144   9.065
 8668SOL    HW138063   3.355   5.064   9.108
 8668SOL    HW238064   3.333   5.182   8.998
 8669SOL     OW38065   2.117   4.533   8.756
 8669SOL    HW138066   2.117   4.443   8.800
 8669SOL    HW238067   2.085   4.602   8.820
 8670SOL     OW38068   2.669   5.200   7.411
 8670SOL    HW138069   2.621   5.252   7.481
 8670SOL    HW238070   2.721   5.127   7.454
 8671SOL     OW38071   2.490   5.343   8.491
 8671SOL    HW138072   2.487   5.328   8.392
 8671SOL    HW238073   2.481   5.255   8.539
 8672SOL     OW38074   2.602   4.832   8.105
 8672SOL    HW138075   2.682   4.871   8.150
 8672SOL    HW238076   2.552   4.775   8.171
 8673SOL     OW38077   2.781   5.197   7.913
 8673SOL    HW138078   2.839   5.214   7.834
 8673SOL    HW238079   2.717   5.123   7.893
 8674SOL     OW38080   1.999   4.534   8.299
 8674SOL    HW138081   2.082   4.511   8.249
 8674SOL    HW238082   1.934   4.579   8.238
 8675SOL     OW38083   1.893   4.610   9.190
 8675SOL    HW138084   1.793   4.611   9.186
 8675SOL    HW238085   1.922   4.566   9.275
 8676SOL     OW38086   2.840   5.443   8.804
 8676SOL    HW138087   2.804   5.387   8.879
 8676SOL    HW238088   2.770   5.507   8.774
 8677SOL     OW38089   3.010   4.741   8.371
 8677SOL    HW138090   3.074   4.754   8.447
 8677SOL    HW238091   2.967   4.652   8.379
 8678SOL     OW38092   2.382   4.076   9.160
 8678SOL    HW138093   2.454   4.069   9.091
 8678SOL    HW238094   2.378   4.170   9.193
 8679SOL     OW38095   2.361   4.558   7.709
 8679SOL    HW138096   2.338   4.649   7.675
 8679SOL    HW238097   2.288   4.526   7.770
 8680SOL     OW38098   3.404   4.628   8.346
 8680SOL    HW138099   3.448   4.703   8.295
 8680SOL    HW238100   3.368   4.664   8.432
 8681SOL     OW38101   3.196   3.971   8.770
 8681SOL    HW138102   3.266   3.943   8.836
 8681SOL    HW238103   3.141   3.891   8.744
 8682SOL     OW38104   1.882   3.776   7.882
 8682SOL    HW138105   1.791   3.736   7.872
 8682SOL    HW238106   1.880   3.872   7.856
 8683SOL     OW38107   3.111   3.836   9.143
 8683SOL    HW138108   3.157   3.827   9.231
 8683SOL    HW238109   3.048   3.914   9.145
 8684SOL     OW38110   2.292   5.282   9.009
 8684SOL    HW138111   2.234   5.337   9.068
 8684SOL    HW238112   2.329   5.338   8.935
 8685SOL     OW38113   3.631   5.166   8.926
 8685SOL    HW138114   3.674   5.254   8.948
 8685SOL    HW238115   3.546   5.156   8.978
 8686SOL     OW38116   2.869   4.154   8.441
 8686SOL    HW138117   2.942   4.208   8.485
 8686SOL    HW238118   2.871   4.061   8.475
 8687SOL     OW38119   2.298   5.194   8.062
 8687SOL    HW138120   2.295   5.094   8.068
 8687SOL    HW238121   2.206   5.231   8.071
 8688SOL     OW38122   2.918   5.239   8.603
 8688SOL    HW138123   2.851   5.227   8.530
 8688SOL    HW238124   2.884   5.307   8.668
 8689SOL     OW38125   2.141   5.448   9.179
 8689SOL    HW138126   2.171   5.541   9.162
 8689SOL    HW238127   2.146   5.428   9.277
 8690SOL     OW38128   1.974   4.966   9.016
 8690SOL    HW138129   1.959   4.872   8.985
 8690SOL    HW238130   1.899   5.024   8.984
 8691SOL     OW38131   2.035   5.341   8.443
 8691SOL    HW138132   2.024   5.246   8.471
 8691SOL    HW238133   2.061   5.345   8.347
 8692SOL     OW38134   2.845   3.859   8.209
 8692SOL    HW138135   2.932   3.889   8.247
 8692SOL    HW238136   2.805   3.788   8.268
 8693SOL     OW38137   2.903   4.885   7.748
 8693SOL    HW138138   2.998   4.905   7.769
 8693SOL    HW238139   2.867   4.820   7.815
 8694SOL     OW38140   2.617   4.821   7.650
 8694SOL    HW138141   2.675   4.876   7.590
 8694SOL    HW238142   2.669   4.743   7.684
 8695SOL     OW38143   2.649   3.780   7.530
 8695SOL    HW138144   2.731   3.724   7.529
 8695SOL    HW238145   2.672   3.873   7.558
 8696SOL     OW38146   2.413   4.149   8.174
 8696SOL    HW138147   2.483   4.079   8.160
 8696SOL    HW238148   2.431   4.227   8.113
 8697SOL     OW38149   3.584   4.787   8.697
 8697SOL    HW138150   3.597   4.885   8.683
 8697SOL    HW238151   3.638   4.736   8.629
 8698SOL     OW38152   2.045   4.930   7.471
 8698SOL    HW138153   2.016   4.945   7.377
 8698SOL    HW238154   2.122   4.990   7.493
 8699SOL     OW38155   2.507   5.325   7.587
 8699SOL    HW138156   2.456   5.408   7.565
 8699SOL    HW238157   2.469   5.284   7.670
 8700SOL     OW38158   3.088   4.797   8.797
 8700SOL    HW138159   3.069   4.774   8.892
 8700SOL    HW238160   3.083   4.896   8.785
 8701SOL     OW38161   2.387   5.436   8.798
 8701SOL    HW138162   2.462   5.499   8.778
 8701SOL    HW238163   2.312   5.451   8.733
 8702SOL     OW38164   2.011   4.251   9.164
 8702SOL    HW138165   2.009   4.153   9.147
 8702SOL    HW238166   2.059   4.269   9.250
 8703SOL     OW38167   3.512   5.200   8.429
 8703SOL    HW138168   3.551   5.287   8.457
 8703SOL    HW238169   3.541   5.128   8.493
 8704SOL     OW38170   1.828   4.651   8.091
 8704SOL    HW138171   1.851   4.729   8.033
 8704SOL    HW238172   1.729   4.647   8.105
 8705SOL     OW38173   2.374   4.369   8.874
 8705SOL    HW138174   2.283   4.331   8.887
 8705SOL    HW238175   2.367   4.458   8.829
 8706SOL     OW38176   3.486   4.849   8.184
 8706SOL    HW138177   3.461   4.945   8.175
 8706SOL    HW238178   3.457   4.799   8.103
 8707SOL     OW38179   2.663   4.332   8.374
 8707SOL    HW138180   2.726   4.258   8.394
 8707SOL    HW238181   2.597   4.341   8.448
 8708SOL     OW38182   2.470   5.082   8.591
 8708SOL    HW138183   2.380   5.041   8.603
 8708SOL    HW238184   2.526   5.023   8.532
 8709SOL     OW38185   2.009   4.393   8.542
 8709SOL    HW138186   2.041   4.456   8.612
 8709SOL    HW238187   2.010   4.440   8.453
 8710SOL     OW38188   2.211   5.035   8.904
 8710SOL    HW138189   2.249   5.123   8.935
 8710SOL    HW238190   2.122   5.020   8.946
 8711SOL     OW38191   3.490   5.382   9.168
 8711SOL    HW138192   3.457   5.290   9.144
 8711SOL    HW238193   3.464   5.446   9.096
 8712SOL     OW38194   3.178   4.922   7.791
 8712SOL    HW138195   3.250   4.973   7.838
 8712SOL    HW238196   3.193   4.927   7.692
 8713SOL     OW38197   2.519   4.027   7.869
 8713SOL    HW138198   2.420   4.011   7.860
 8713SOL    HW238199   2.548   4.002   7.961
 8714SOL     OW38200   3.432   3.688   8.150
 8714SOL    HW138201   3.435   3.711   8.052
 8714SOL    HW238202   3.495   3.747   8.200
 8715SOL     OW38203   3.005   4.452   8.813
 8715SOL    HW138204   3.099   4.448   8.781
 8715SOL    HW238205   2.958   4.530   8.771
 8716SOL     OW38206   2.507   4.449   8.182
 8716SOL    HW138207   2.561   4.402   8.252
 8716SOL    HW238208   2.525   4.408   8.093
 8717SOL     OW38209   3.149   5.183   8.458
 8717SOL    HW138210   3.060   5.192   8.503
 8717SOL    HW238211   3.138   5.196   8.360
 8718SOL     OW38212   3.201   4.150   8.131
 8718SOL    HW138213   3.201   4.142   8.031
 8718SOL    HW238214   3.286   4.194   8.161
 8719SOL     OW38215   2.968   5.104   0.003
 8719SOL    HW138216   3.043   5.042   9.982
 8719SOL    HW238217   2.916   5.123   9.920
 8720SOL     OW38218   3.468   4.942   9.787
 8720SOL    HW138219   3.488   5.008   9.859
 8720SOL    HW238220   3.553   4.906   9.750
 8721SOL     OW38221   2.203   3.884   9.205
 8721SOL    HW138222   2.119   3.912   9.159
 8721SOL    HW238223   2.275   3.951   9.186
 8722SOL     OW38224   2.406   5.185   9.626
 8722SOL    HW138225   2.352   5.203   9.708
 8722SOL    HW238226   2.485   5.128   9.649
 8723SOL     OW38227   2.402   3.737   9.348
 8723SOL    HW138228   2.492   3.780   9.355
 8723SOL    HW238229   2.342   3.795   9.292
 8724SOL     OW38230   2.250   4.888   9.881
 8724SOL    HW138231   2.183   4.898   9.955
 8724SOL    HW238232   2.342   4.904   9.916
 8725SOL     OW38233   2.621   4.318   9.716
 8725SOL    HW138234   2.626   4.414   9.689
 8725SOL    HW238235   2.631   4.260   9.635
 8726SOL     OW38236   2.271   5.083   9.403
 8726SOL    HW138237   2.328   5.105   9.324
 8726SOL    HW238238   2.312   5.124   9.485
 8727SOL     OW38239   2.139   4.452   9.650
 8727SOL    HW138240   2.173   4.384   9.715
 8727SOL    HW238241   2.073   4.512   9.696
 8728SOL     OW38242   2.824   5.427   9.849
 8728SOL    HW138243   2.830   5.329   9.830
 8728SOL    HW238244   2.764   5.471   9.781
 8729SOL     OW38245   3.614   5.272   9.621
 8729SOL    HW138246   3.707   5.246   9.596
 8729SOL    HW238247   3.576   5.331   9.550
 8730SOL     OW38248   2.897   4.004   9.666
 8730SOL    HW138249   2.877   4.074   9.734
 8730SOL    HW238250   2.920   3.918   9.712
 8731SOL     OW38251   2.368   4.352   9.241
 8731SOL    HW138252   2.339   4.447   9.241
 8731SOL    HW238253   2.448   4.341   9.182
 8732SOL     OW38254   3.704   5.103   0.092
 8732SOL    HW138255   3.656   5.124   0.176
 8732SOL    HW238256   3.668   5.159   0.017
 8733SOL     OW38257   2.116   4.973   9.657
 8733SOL    HW138258   2.169   4.929   9.730
 8733SOL    HW238259   2.127   4.922   9.572
 8734SOL     OW38260   2.998   3.977   9.412
 8734SOL    HW138261   3.077   3.916   9.412
 8734SOL    HW238262   2.969   3.994   9.506
 8735SOL     OW38263   2.273   4.025   9.654
 8735SOL    HW138264   2.245   3.996   9.745
 8735SOL    HW238265   2.204   3.997   9.587
 8736SOL     OW38266   3.827   5.473   0.229
 8736SOL    HW138267   3.812   5.512   0.320
 8736SOL    HW238268   3.916   5.427   0.226
 8737SOL     OW38269   2.811   4.180   9.855
 8737SOL    HW138270   2.873   4.230   9.915
 8737SOL    HW238271   2.746   4.244   9.812
 8738SOL     OW38272   3.100   4.672   9.392
 8738SOL    HW138273   3.120   4.634   9.483
 8738SOL    HW238274   3.058   4.601   9.335
 8739SOL     OW38275   3.577   4.381   9.569
 8739SOL    HW138276   3.518   4.302   9.555
 8739SOL    HW238277   3.637   4.365   9.647
 8740SOL     OW38278   2.855   5.436   9.370
 8740SOL    HW138279   2.893   5.378   9.298
 8740SOL    HW238280   2.871   5.393   9.459
 8741SOL     OW38281   1.921   4.298   9.797
 8741SOL    HW138282   1.903   4.271   9.891
 8741SOL    HW238283   1.940   4.396   9.794
 8742SOL     OW38284   2.033   5.231   9.593
 8742SOL    HW138285   2.066   5.138   9.607
 8742SOL    HW238286   2.094   5.279   9.530
 8743SOL     OW38287   2.016   5.302   9.861
 8743SOL    HW138288   1.921   5.289   9.889
 8743SOL    HW238289   2.023   5.295   9.761
 8744SOL     OW38290   2.319   4.624   9.242
 8744SOL    HW138291   2.293   4.669   9.156
 8744SOL    HW238292   2.312   4.689   9.317
 8745SOL     OW38293   1.945   4.518   9.444
 8745SOL    HW138294   2.030   4.490   9.490
 8745SOL    HW238295   1.869   4.464   9.480
 8746SOL     OW38296   3.443   4.610   9.638
 8746SOL    HW138297   3.491   4.527   9.611
 8746SOL    HW238298   3.459   4.682   9.570
 8747SOL     OW38299   2.595   4.589   9.265
 8747SOL    HW138300   2.622   4.503   9.309
 8747SOL    HW238301   2.496   4.591   9.256
 8748SOL     OW38302   3.205   4.111   9.633
 8748SOL    HW138303   3.157   4.180   9.578
 8748SOL    HW238304   3.303   4.125   9.625
 8749SOL     OW38305   3.482   4.121   9.635
 8749SOL    HW138306   3.579   4.098   9.625
 8749SOL    HW238307   3.462   4.141   9.731
 8750SOL     OW38308   2.691   4.121   9.520
 8750SOL    HW138309   2.618   4.063   9.558
 8750SOL    HW238310   2.779   4.089   9.554
 8751SOL     OW38311   2.818   4.988   9.395
 8751SOL    HW138312   2.872   4.965   9.476
 8751SOL    HW238313   2.875   4.982   9.313
 8752SOL     OW38314   3.601   5.267   9.893
 8752SOL    HW138315   3.555   5.352   9.921
 8752SOL    HW238316   3.596   5.257   9.794
 8753SOL     OW38317   3.006   4.542   9.854
 8753SOL    HW138318   3.080   4.596   9.895
 8753SOL    HW238319   2.932   4.602   9.827
 8754SOL     OW38320   3.211   4.674   9.969
 8754SOL    HW138321   3.165   4.667   0.058
 8754SOL    HW238322   3.225   4.771   9.947
 8755SOL     OW38323   2.787   4.691   9.782
 8755SOL    HW138324   2.741   4.649   9.703
 8755SOL    HW238325   2.738   4.667   9.866
 8756SOL     OW38326   1.908   4.067   9.640
 8756SOL    HW138327   1.975   4.052   9.568
 8756SOL    HW238328   1.936   4.145   9.696
 8757SOL     OW38329   3.522   5.456   9.431
 8757SOL    HW138330   3.607   5.508   9.419
 8757SOL    HW238331   3.491   5.422   9.342
 8758SOL     OW38332   2.645   4.568   9.581
 8758SOL    HW138333   2.545   4.570   9.579
 8758SOL    HW238334   2.679   4.505   9.511
 8759SOL     OW38335   2.172   5.461   9.460
 8759SOL    HW138336   2.261   5.499   9.435
 8759SOL    HW238337   2.149   5.489   9.553
 8760SOL     OW38338   2.635   3.691   9.667
 8760SOL    HW138339   2.612   3.637   9.586
 8760SOL    HW238340   2.598   3.783   9.657
 8761SOL     OW38341   1.863   4.839   9.725
 8761SOL    HW138342   1.928   4.910   9.754
 8761SOL    HW238343   1.870   4.826   9.626
 8762SOL     OW38344   3.235   3.806   9.401
 8762SOL    HW138345   3.294   3.728   9.381
 8762SOL    HW238346   3.213   3.808   9.498
 8763SOL     OW38347   2.634   3.985   9.925
 8763SOL    HW138348   2.667   3.923   9.996
 8763SOL    HW238349   2.706   4.050   9.901
 8764SOL     OW38350   3.438   3.730   9.675
 8764SOL    HW138351   3.446   3.681   9.589
 8764SOL    HW238352   3.349   3.775   9.680
 8765SOL     OW38353   3.171   4.547   9.627
 8765SOL    HW138354   3.118   4.540   9.711
 8765SOL    HW238355   3.264   4.575   9.648
 8766SOL     OW38356   3.477   4.617   9.911
 8766SOL    HW138357   3.475   4.624   9.811
 8766SOL    HW238358   3.383   4.620   9.946
 8767SOL     OW38359   3.409   4.026   9.383
 8767SOL    HW138360   3.435   4.055   9.475
 8767SOL    HW238361   3.342   3.952   9.390
 8768SOL     OW38362   2.164   4.274   9.405
 8768SOL    HW138363   2.244   4.296   9.349
 8768SOL    HW238364   2.169   4.324   9.491
 8769SOL     OW38365   2.162   5.502   9.982
 8769SOL    HW138366   2.104   5.431   9.942
 8769SOL    HW238367   2.233   5.460   0.037
 8770SOL     OW38368   2.602   5.012   9.710
 8770SOL    HW138369   2.610   4.941   9.640
 8770SOL    HW238370   2.574   4.970   9.796
 8771SOL     OW38371   2.091   4.012   9.433
 8771SOL    HW138372   2.136   3.957   9.363
 8771SOL    HW238373   2.117   4.108   9.423
 8772SOL     OW38374   1.852   4.291   0.065
 8772SOL    HW138375   1.794   4.367   0.094
 8772SOL    HW238376   1.937   4.291   0.118
 8773SOL     OW38377   2.342   4.819   9.442
 8773SOL    HW138378   2.440   4.829   9.463
 8773SOL    HW238379   2.303   4.909   9.424
 8774SOL     OW38380   2.978   4.434   9.270
 8774SOL    HW138381   2.922   4.494   9.212
 8774SOL    HW238382   3.034   4.375   9.212
 8775SOL     OW38383   2.726   4.376   9.400
 8775SOL    HW138384   2.818   4.385   9.363
 8775SOL    HW238385   2.709   4.281   9.424
 8776SOL     OW38386   3.189   3.843   9.665
 8776SOL    HW138387   3.115   3.813   9.725
 8776SOL    HW238388   3.190   3.942   9.661
 8777SOL     OW38389   1.932   3.768   9.395
 8777SOL    HW138390   2.009   3.706   9.408
 8777SOL    HW238391   1.961   3.861   9.415
 8778SOL     OW38392   3.509   4.765   9.421
 8778SOL    HW138393   3.607   4.779   9.430
 8778SOL    HW238394   3.486   4.748   9.326
 8779SOL     OW38395   2.976   3.791   9.825
 8779SOL    HW138396   2.994   3.828   9.916
 8779SOL    HW238397   2.916   3.711   9.833
 8780SOL     OW38398   2.112   3.735   9.670
 8780SOL    HW138399   2.177   3.748   9.744
 8780SOL    HW238400   2.020   3.758   9.702
 8781SOL     OW38401   1.918   4.792   9.462
 8781SOL    HW138402   1.939   4.696   9.446
 8781SOL    HW238403   1.966   4.848   9.394
 8782SOL     OW38404   3.556   3.940   0.009
 8782SOL    HW138405   3.510   3.952   0.097
 8782SOL    HW238406   3.654   3.925   0.025
 8783SOL     OW38407   3.103   4.320   9.492
 8783SOL    HW138408   3.130   4.400   9.547
 8783SOL    HW238409   3.053   4.351   9.411
 8784SOL     OW38410   2.676   5.204   9.278
 8784SOL    HW138411   2.649   5.271   9.347
 8784SOL    HW238412   2.730   5.131   9.322
 8785SOL     OW38413   2.513   4.924   9.960
 8785SOL    HW138414   2.534   5.014   9.998
 8785SOL    HW238415   2.554   4.853   0.017
 8786SOL     OW38416   2.831   5.163   9.772
 8786SOL    HW138417   2.888   5.169   9.690
 8786SOL    HW238418   2.749   5.110   9.752
 8787SOL     OW38419   2.375   4.580   9.574
 8787SOL    HW138420   2.351   4.667   9.533
 8787SOL    HW238421   2.292   4.532   9.603
 8788SOL     OW38422   1.865   3.821   9.752
 8788SOL    HW138423   1.774   3.791   9.721
 8788SOL    HW238424   1.882   3.914   9.720
 8789SOL     OW38425   2.259   5.176   9.861
 8789SOL    HW138426   2.243   5.078   9.847
 8789SOL    HW238427   2.171   5.223   9.869
 8790SOL     OW38428   2.928   4.892   9.635
 8790SOL    HW138429   3.021   4.904   9.671
 8790SOL    HW238430   2.878   4.827   9.692
 8791SOL     OW38431   3.460   4.169   9.902
 8791SOL    HW138432   3.517   4.238   9.947
 8791SOL    HW238433   3.486   4.078   9.934
 8792SOL     OW38434   2.610   4.837   9.487
 8792SOL    HW138435   2.685   4.891   9.450
 8792SOL    HW238436   2.642   4.745   9.508
 8793SOL     OW38437   2.668   3.825   9.364
 8793SOL    HW138438   2.736   3.753   9.378
 8793SOL    HW238439   2.692   3.906   9.417
 8794SOL     OW38440   2.471   4.216   9.926
 8794SOL    HW138441   2.513   4.127   9.943
 8794SOL    HW238442   2.517   4.260   9.849
 8795SOL     OW38443   2.054   4.946   9.288
 8795SOL    HW138444   2.031   4.961   9.191
 8795SOL    HW238445   2.126   5.010   9.315
 8796SOL     OW38446   2.543   5.365   9.467
 8796SOL    HW138447   2.482   5.434   9.429
 8796SOL    HW238448   2.490   5.303   9.526
 8797SOL     OW38449   1.915   4.574   9.789
 8797SOL    HW138450   1.910   4.671   9.767
 8797SOL    HW238451   1.834   4.548   9.842
 8798SOL     OW38452   3.200   4.916   9.711
 8798SOL    HW138453   3.292   4.922   9.750
 8798SOL    HW238454   3.206   4.910   9.612
 8799SOL     OW38455   2.534   3.951   9.667
 8799SOL    HW138456   2.438   3.980   9.659
 8799SOL    HW238457   2.563   3.959   9.762
 8800SOL     OW38458   3.479   3.685   9.946
 8800SOL    HW138459   3.453   3.687   9.849
 8800SOL    HW238460   3.505   3.776   9.976
 8801SOL     OW38461   3.182   4.184   9.902
 8801SOL    HW138462   3.167   4.153   9.808
 8801SOL    HW238463   3.281   4.185   9.921
 8802SOL     OW38464   2.913   6.994   0.762
 8802SOL    HW138465   3.008   7.024   0.765
 8802SOL    HW238466   2.872   7.019   0.674
 8803SOL     OW38467   3.448   6.819   0.585
 8803SOL    HW138468   3.463   6.883   0.661
 8803SOL    HW238469   3.535   6.778   0.558
 8804SOL     OW38470   3.537   6.166   1.535
 8804SOL    HW138471   3.443   6.141   1.512
 8804SOL    HW238472   3.548   6.265   1.524
 8805SOL     OW38473   2.273   5.755   0.018
 8805SOL    HW138474   2.234   5.664   0.005
 8805SOL    HW238475   2.281   5.801   9.930
 8806SOL     OW38476   3.179   7.086   0.805
 8806SOL    HW138477   3.188   7.182   0.832
 8806SOL    HW238478   3.270   7.047   0.790
 8807SOL     OW38479   2.980   5.681   1.288
 8807SOL    HW138480   2.924   5.617   1.340
 8807SOL    HW238481   3.053   5.632   1.241
 8808SOL     OW38482   2.796   6.395   1.744
 8808SOL    HW138483   2.757   6.396   1.652
 8808SOL    HW238484   2.724   6.418   1.810
 8809SOL     OW38485   2.412   7.012   0.432
 8809SOL    HW138486   2.363   7.038   0.516
 8809SOL    HW238487   2.487   6.950   0.456
 8810SOL     OW38488   2.467   5.650   0.193
 8810SOL    HW138489   2.560   5.686   0.182
 8810SOL    HW238490   2.405   5.700   0.132
 8811SOL     OW38491   3.412   6.649   1.554
 8811SOL    HW138492   3.317   6.639   1.526
 8811SOL    HW238493   3.433   6.745   1.570
 8812SOL     OW38494   3.210   6.602   1.224
 8812SOL    HW138495   3.178   6.598   1.318
 8812SOL    HW238496   3.265   6.685   1.211
 8813SOL     OW38497   2.835   6.873   1.455
 8813SOL    HW138498   2.753   6.927   1.435
 8813SOL    HW238499   2.833   6.789   1.400
 8814SOL     OW38500   2.314   6.751   0.698
 8814SOL    HW138501   2.263   6.709   0.773
 8814SOL    HW238502   2.411   6.726   0.706
 8815SOL     OW38503   2.604   6.161   0.569
 8815SOL    HW138504   2.614   6.243   0.511
 8815SOL    HW238505   2.584   6.082   0.511
 8816SOL     OW38506   3.116   6.086   1.729
 8816SOL    HW138507   3.210   6.063   1.757
 8816SOL    HW238508   3.061   6.002   1.728
 8817SOL     OW38509   2.267   6.934   0.210
 8817SOL    HW138510   2.295   7.001   0.142
 8817SOL    HW238511   2.307   6.956   0.299
 8818SOL     OW38512   2.418   5.839   1.024
 8818SOL    HW138513   2.466   5.926   1.019
 8818SOL    HW238514   2.483   5.764   1.011
 8819SOL     OW38515   2.171   6.306   0.503
 8819SOL    HW138516   2.206   6.338   0.591
 8819SOL    HW238517   2.074   6.282   0.513
 8820SOL     OW38518   2.623   7.265   0.620
 8820SOL    HW138519   2.686   7.201   0.576
 8820SOL    HW238520   2.604   7.341   0.558
 8821SOL     OW38521   3.575   7.077   0.406
 8821SOL    HW138522   3.624   7.157   0.373
 8821SOL    HW238523   3.558   7.014   0.331
 8822SOL     OW38524   3.525   5.875   1.139
 8822SOL    HW138525   3.572   5.952   1.182
 8822SOL    HW238526   3.426   5.887   1.147
 8823SOL     OW38527   2.914   5.916   0.323
 8823SOL    HW138528   2.977   5.992   0.305
 8823SOL    HW238529   2.905   5.903   0.422
 8824SOL     OW38530   2.040   6.527   1.613
 8824SOL    HW138531   2.131   6.561   1.633
 8824SOL    HW238532   1.998   6.492   1.697
 8825SOL     OW38533   2.273   6.237   0.016
 8825SOL    HW138534   2.314   6.328   0.020
 8825SOL    HW238535   2.337   6.173   9.972
 8826SOL     OW38536   2.490   7.139   0.814
 8826SOL    HW138537   2.540   7.190   0.744
 8826SOL    HW238538   2.413   7.092   0.772
 8827SOL     OW38539   2.819   6.123   1.551
 8827SOL    HW138540   2.852   6.047   1.606
 8827SOL    HW238541   2.897   6.177   1.519
 8828SOL     OW38542   3.452   6.994   0.825
 8828SOL    HW138543   3.450   7.027   0.920
 8828SOL    HW238544   3.519   7.046   0.773
 8829SOL     OW38545   2.145   6.778   0.475
 8829SOL    HW138546   2.204   6.770   0.556
 8829SOL    HW238547   2.182   6.721   0.401
 8830SOL     OW38548   3.056   5.795   0.094
 8830SOL    HW138549   3.099   5.867   0.039
 8830SOL    HW238550   3.007   5.837   0.171
 8831SOL     OW38551   2.242   6.110   1.179
 8831SOL    HW138552   2.231   6.015   1.209
 8831SOL    HW238553   2.153   6.154   1.177
 8832SOL     OW38554   2.263   5.828   0.478
 8832SOL    HW138555   2.204   5.867   0.549
 8832SOL    HW238556   2.228   5.853   0.388
 8833SOL     OW38557   3.426   7.235   1.385
 8833SOL    HW138558   3.371   7.260   1.306
 8833SOL    HW238559   3.522   7.256   1.368
 8834SOL     OW38560   3.650   6.069   1.284
 8834SOL    HW138561   3.707   6.139   1.240
 8834SOL    HW238562   3.627   6.098   1.376
 8835SOL     OW38563   3.690   7.266   1.093
 8835SOL    HW138564   3.694   7.297   1.188
 8835SOL    HW238565   3.780   7.233   1.066
 8836SOL     OW38566   2.843   6.007   0.598
 8836SOL    HW138567   2.907   6.041   0.667
 8836SOL    HW238568   2.776   6.078   0.577
 8837SOL     OW38569   3.050   6.524   0.186
 8837SOL    HW138570   3.083   6.455   0.250
 8837SOL    HW238571   2.952   6.538   0.200
 8838SOL     OW38572   2.905   5.890   1.733
 8838SOL    HW138573   2.940   5.880   1.826
 8838SOL    HW238574   2.813   5.850   1.728
 8839SOL     OW38575   3.551   6.206   0.419
 8839SOL    HW138576   3.514   6.114   0.426
 8839SOL    HW238577   3.623   6.219   0.487
 8840SOL     OW38578   2.806   7.298   0.118
 8840SOL    HW138579   2.809   7.285   0.019
 8840SOL    HW238580   2.850   7.220   0.162
 8841SOL     OW38581   2.633   5.613   1.712
 8841SOL    HW138582   2.655   5.518   1.688
 8841SOL    HW238583   2.635   5.623   1.812
 8842SOL     OW38584   2.929   6.836   1.724
 8842SOL    HW138585   2.960   6.741   1.721
 8842SOL    HW238586   2.884   6.859   1.637
 8843SOL     OW38587   2.607   6.638   1.719
 8843SOL    HW138588   2.550   6.720   1.720
 8843SOL    HW238589   2.604   6.594   1.809
 8844SOL     OW38590   3.580   5.808   1.813
 8844SOL    HW138591   3.550   5.866   1.889
 8844SOL    HW238592   3.561   5.712   1.835
 8845SOL     OW38593   1.917   6.245   0.593
 8845SOL    HW138594   1.936   6.185   0.670
 8845SOL    HW238595   1.878   6.331   0.627
 8846SOL     OW38596   2.214   5.721   0.853
 8846SOL    HW138597   2.278   5.774   0.908
 8846SOL    HW238598   2.264   5.661   0.790
 8847SOL     OW38599   2.229   5.828   1.231
 8847SOL    HW138600   2.208   5.732   1.250
 8847SOL    HW238601   2.295   5.833   1.156
 8848SOL     OW38602   2.904   6.335   0.922
 8848SOL    HW138603   2.808   6.340   0.895
 8848SOL    HW238604   2.946   6.252   0.884
 8849SOL     OW38605   2.020   7.021   0.396
 8849SOL    HW138606   2.065   6.934   0.415
 8849SOL    HW238607   2.083   7.081   0.347
 8850SOL     OW38608   3.300   6.867   1.240
 8850SOL    HW138609   3.256   6.896   1.155
 8850SOL    HW238610   3.239   6.886   1.317
 8851SOL     OW38611   2.016   7.109   0.658
 8851SOL    HW138612   1.921   7.122   0.688
 8851SOL    HW238613   2.018   7.083   0.562
 8852SOL     OW38614   3.571   6.927   1.265
 8852SOL    HW138615   3.599   6.940   1.360
 8852SOL    HW238616   3.478   6.890   1.262
 8853SOL     OW38617   2.353   6.499   0.019
 8853SOL    HW138618   2.314   6.544   9.938
 8853SOL    HW238619   2.333   6.555   0.100
 8854SOL     OW38620   2.803   6.646   1.297
 8854SOL    HW138621   2.859   6.571   1.261
 8854SOL    HW238622   2.740   6.677   1.225
 8855SOL     OW38623   1.939   6.353   0.246
 8855SOL    HW138624   2.016   6.289   0.241
 8855SOL    HW238625   1.860   6.307   0.285
 8856SOL     OW38626   3.413   6.445   0.437
 8856SOL    HW138627   3.459   6.356   0.436
 8856SOL    HW238628   3.466   6.510   0.384
 8857SOL     OW38629   2.718   7.302   1.122
 8857SOL    HW138630   2.741   7.223   1.066
 8857SOL    HW238631   2.621   7.323   1.112
 8858SOL     OW38632   2.621   6.481   0.080
 8858SOL    HW138633   2.666   6.394   0.098
 8858SOL    HW238634   2.526   6.466   0.055
 8859SOL     OW38635   3.212   5.987   0.483
 8859SOL    HW138636   3.172   6.032   0.404
 8859SOL    HW238637   3.309   5.969   0.466
 8860SOL     OW38638   2.123   6.156   1.520
 8860SOL    HW138639   2.097   6.068   1.480
 8860SOL    HW238640   2.098   6.157   1.617
 8861SOL     OW38641   2.043   5.903   1.431
 8861SOL    HW138642   2.111   5.876   1.363
 8861SOL    HW238643   1.954   5.865   1.406
 8862SOL     OW38644   2.892   6.396   1.203
 8862SOL    HW138645   2.904   6.383   1.104
 8862SOL    HW238646   2.813   6.344   1.234
 8863SOL     OW38647   3.497   5.941   0.486
 8863SOL    HW138648   3.589   5.909   0.464
 8863SOL    HW238649   3.489   5.953   0.585
 8864SOL     OW38650   2.735   7.101   0.944
 8864SOL    HW138651   2.805   7.063   0.883
 8864SOL    HW238652   2.647   7.102   0.897
 8865SOL     OW38653   2.661   6.023   0.307
 8865SOL    HW138654   2.599   5.958   0.352
 8865SOL    HW238655   2.754   5.987   0.308
 8866SOL     OW38656   2.804   6.863   0.199
 8866SOL    HW138657   2.855   6.832   0.280
 8866SOL    HW238658   2.863   6.921   0.142
 8867SOL     OW38659   3.613   7.147   0.668
 8867SOL    HW138660   3.567   7.232   0.694
 8867SOL    HW238661   3.588   7.122   0.575
 8868SOL     OW38662   3.010   6.451   0.578
 8868SOL    HW138663   3.052   6.475   0.666
 8868SOL    HW238664   2.918   6.490   0.574
 8869SOL     OW38665   2.663   7.128   1.627
 8869SOL    HW138666   2.636   7.068   1.552
 8869SOL    HW238667   2.664   7.076   1.713
 8870SOL     OW38668   3.110   6.499   0.829
 8870SOL    HW138669   3.045   6.431   0.862
 8870SOL    HW238670   3.102   6.582   0.885
 8871SOL     OW38671   2.173   6.636   0.901
 8871SOL    HW138672   2.083   6.678   0.894
 8871SOL    HW238673   2.187   6.603   0.995
 8872SOL     OW38674   2.759   6.557   0.548
 8872SOL    HW138675   2.713   6.491   0.490
 8872SOL    HW238676   2.699   6.583   0.623
 8873SOL     OW38677   3.113   6.917   1.441
 8873SOL    HW138678   3.144   7.006   1.473
 8873SOL    HW238679   3.013   6.917   1.433
 8874SOL     OW38680   1.938   5.903   0.426
 8874SOL    HW138681   2.007   5.902   0.354
 8874SOL    HW238682   1.983   5.911   0.515
 8875SOL     OW38683   3.431   7.329   0.224
 8875SOL    HW138684   3.522   7.307   0.258
 8875SOL    HW238685   3.427   7.313   0.126
 8876SOL     OW38686   2.686   6.274   1.352
 8876SOL    HW138687   2.675   6.357   1.406
 8876SOL    HW238688   2.726   6.202   1.408
 8877SOL     OW38689   2.631   6.368   0.393
 8877SOL    HW138690   2.535   6.387   0.373
 8877SOL    HW238691   2.675   6.331   0.311
 8878SOL     OW38692   2.240   6.156   0.905
 8878SOL    HW138693   2.308   6.105   0.853
 8878SOL    HW238694   2.253   6.139   1.002
 8879SOL     OW38695   2.179   7.218   0.284
 8879SOL    HW138696   2.270   7.210   0.244
 8879SOL    HW238697   2.183   7.282   0.361
 8880SOL     OW38698   3.243   7.250   1.156
 8880SOL    HW138699   3.225   7.301   1.072
 8880SOL    HW238700   3.314   7.182   1.139
 8881SOL     OW38701   1.912   6.752   0.941
 8881SOL    HW138702   1.829   6.739   0.887
 8881SOL    HW238703   1.907   6.696   1.024
 8882SOL     OW38704   2.536   5.589   0.456
 8882SOL    HW138705   2.498   5.597   0.364
 8882SOL    HW238706   2.565   5.679   0.488
 8883SOL     OW38707   1.872   6.692   0.512
 8883SOL    HW138708   1.963   6.732   0.523
 8883SOL    HW238709   1.860   6.662   0.417
 8884SOL     OW38710   3.451   5.836   1.570
 8884SOL    HW138711   3.400   5.921   1.557
 8884SOL    HW238712   3.494   5.837   1.661
 8885SOL     OW38713   3.119   5.816   0.962
 8885SOL    HW138714   3.158   5.860   0.881
 8885SOL    HW238715   3.172   5.840   1.043
 8886SOL     OW38716   3.227   5.623   0.231
 8886SOL    HW138717   3.233   5.534   0.186
 8886SOL    HW238718   3.159   5.680   0.185
 8887SOL     OW38719   3.419   5.560   1.562
 8887SOL    HW138720   3.408   5.528   1.468
 8887SOL    HW238721   3.422   5.660   1.563
 8888SOL     OW38722   2.674   5.865   0.764
 8888SOL    HW138723   2.723   5.827   0.843
 8888SOL    HW238724   2.739   5.907   0.701
 8889SOL     OW38725   3.092   6.140   1.201
 8889SOL    HW138726   3.122   6.218   1.145
 8889SOL    HW238727   3.073   6.171   1.294
 8890SOL     OW38728   3.438   5.581   0.415
 8890SOL    HW138729   3.494   5.527   0.352
 8890SOL    HW238730   3.349   5.601   0.373
 8891SOL     OW38731   2.437   6.855   1.727
 8891SOL    HW138732   2.388   6.918   1.667
 8891SOL    HW238733   2.501   6.905   1.785
 8892SOL     OW38734   2.289   6.625   1.661
 8892SOL    HW138735   2.333   6.596   1.577
 8892SOL    HW238736   2.329   6.712   1.691
 8893SOL     OW38737   1.984   6.980   1.089
 8893SOL    HW138738   1.964   6.911   1.019
 8893SOL    HW238739   1.904   6.992   1.148
 8894SOL     OW38740   2.982   6.093   0.822
 8894SOL    HW138741   3.072   6.054   0.807
 8894SOL    HW238742   2.944   6.059   0.908
 8895SOL     OW38743   3.252   5.914   1.183
 8895SOL    HW138744   3.205   6.002   1.182
 8895SOL    HW238745   3.235   5.869   1.271
 8896SOL     OW38746   3.378   6.043   1.788
 8896SOL    HW138747   3.458   6.078   1.739
 8896SOL    HW238748   3.406   6.010   1.878
 8897SOL     OW38749   3.158   6.364   0.376
 8897SOL    HW138750   3.101   6.389   0.454
 8897SOL    HW238751   3.253   6.391   0.394
 8898SOL     OW38752   3.371   6.525   0.718
 8898SOL    HW138753   3.366   6.510   0.619
 8898SOL    HW238754   3.281   6.511   0.759
 8899SOL     OW38755   3.396   5.846   0.243
 8899SOL    HW138756   3.433   5.868   0.333
 8899SOL    HW238757   3.332   5.770   0.251
 8900SOL     OW38758   2.581   6.996   1.404
 8900SOL    HW138759   2.527   7.078   1.386
 8900SOL    HW238760   2.535   6.916   1.364
 8901SOL     OW38761   2.001   5.848   1.708
 8901SOL    HW138762   2.010   5.859   1.609
 8901SOL    HW238763   1.907   5.825   1.731
 8902SOL     OW38764   2.078   5.892   0.672
 8902SOL    HW138765   2.037   5.968   0.722
 8902SOL    HW238766   2.120   5.829   0.737
 8903SOL     OW38767   3.219   7.153   1.542
 8903SOL    HW138768   3.154   7.227   1.524
 8903SOL    HW238769   3.306   7.172   1.497
 8904SOL     OW38770   2.153   6.167   0.250
 8904SOL    HW138771   2.212   6.201   0.177
 8904SOL    HW238772   2.180   6.208   0.337
 8905SOL     OW38773   3.632   5.767   1.379
 8905SOL    HW138774   3.564   5.796   1.447
 8905SOL    HW238775   3.600   5.791   1.287
 8906SOL     OW38776   2.148   7.305   0.801
 8906SOL    HW138777   2.095   7.239   0.748
 8906SOL    HW238778   2.232   7.328   0.752
 8907SOL     OW38779   2.181   6.830   1.227
 8907SOL    HW138780   2.156   6.849   1.322
 8907SOL    HW238781   2.126   6.887   1.166
 8908SOL     OW38782   3.114   7.036   1.784
 8908SOL    HW138783   3.047   6.966   1.762
 8908SOL    HW238784   3.138   7.087   1.701
 8909SOL     OW38785   2.603   6.829   0.507
 8909SOL    HW138786   2.612   6.765   0.431
 8909SOL    HW238787   2.603   6.779   0.593
 8910SOL     OW38788   2.219   6.391   0.762
 8910SOL    HW138789   2.231   6.475   0.814
 8910SOL    HW238790   2.240   6.312   0.821
 8911SOL     OW38791   2.151   5.890   0.233
 8911SOL    HW138792   2.203   5.855   0.156
 8911SOL    HW238793   2.151   5.990   0.230
 8912SOL     OW38794   1.976   6.100   0.819
 8912SOL    HW138795   1.900   6.139   0.871
 8912SOL    HW238796   2.062   6.128   0.861
 8913SOL     OW38797   2.343   6.674   0.241
 8913SOL    HW138798   2.441   6.679   0.260
 8913SOL    HW238799   2.307   6.766   0.225
 8914SOL     OW38800   2.999   6.186   0.014
 8914SOL    HW138801   3.004   6.270   9.959
 8914SOL    HW238802   3.068   6.121   9.981
 8915SOL     OW38803   2.741   6.246   0.162
 8915SOL    HW138804   2.829   6.225   0.120
 8915SOL    HW238805   2.703   6.163   0.203
 8916SOL     OW38806   3.282   6.069   1.496
 8916SOL    HW138807   3.224   6.110   1.567
 8916SOL    HW238808   3.235   5.990   1.456
 8917SOL     OW38809   1.980   5.683   0.111
 8917SOL    HW138810   2.037   5.614   0.067
 8917SOL    HW238811   2.039   5.749   0.158
 8918SOL     OW38812   2.170   6.561   1.167
 8918SOL    HW138813   2.175   6.501   1.246
 8918SOL    HW238814   2.181   6.656   1.197
 8919SOL     OW38815   3.609   6.562   0.253
 8919SOL    HW138816   3.565   6.589   0.167
 8919SOL    HW238817   3.655   6.474   0.240
 8920SOL     OW38818   2.475   6.272   1.166
 8920SOL    HW138819   2.536   6.275   1.245
 8920SOL    HW238820   2.390   6.225   1.190
 8921SOL     OW38821   2.682   6.506   1.499
 8921SOL    HW138822   2.731   6.563   1.433
 8921SOL    HW238823   2.660   6.560   1.580
 8922SOL     OW38824   3.001   6.572   1.700
 8922SOL    HW138825   2.923   6.512   1.718
 8922SOL    HW238826   3.084   6.530   1.738
 8923SOL     OW38827   2.224   7.388   1.261
 8923SOL    HW138828   2.195   7.322   1.192
 8923SOL    HW238829   2.150   7.401   1.328
 8924SOL     OW38830   2.814   6.764   0.880
 8924SOL    HW138831   2.845   6.848   0.836
 8924SOL    HW238832   2.890   6.721   0.929
 8925SOL     OW38833   2.534   6.469   0.962
 8925SOL    HW138834   2.576   6.400   0.903
 8925SOL    HW238835   2.492   6.424   1.041
 8926SOL     OW38836   1.893   6.582   1.153
 8926SOL    HW138837   1.989   6.553   1.151
 8926SOL    HW238838   1.837   6.514   1.106
 8927SOL     OW38839   2.117   5.586   0.496
 8927SOL    HW138840   2.169   5.670   0.488
 8927SOL    HW238841   2.019   5.607   0.506
 8928SOL     OW38842   2.562   6.182   1.672
 8928SOL    HW138843   2.502   6.212   1.598
 8928SOL    HW238844   2.652   6.159   1.634
 8929SOL     OW38845   1.891   6.619   0.242
 8929SOL    HW138846   1.918   6.523   0.241
 8929SOL    HW238847   1.952   6.672   0.184
 8930SOL     OW38848   3.607   5.772   0.891
 8930SOL    HW138849   3.575   5.798   0.983
 8930SOL    HW238850   3.702   5.741   0.896
 8931SOL     OW38851   2.631   6.699   1.084
 8931SOL    HW138852   2.594   6.616   1.043
 8931SOL    HW238853   2.691   6.744   1.019
 8932SOL     OW38854   3.080   6.126   0.272
 8932SOL    HW138855   3.111   6.209   0.319
 8932SOL    HW238856   3.057   6.148   0.177
 8933SOL     OW38857   3.382   6.924   1.641
 8933SOL    HW138858   3.338   6.868   1.711
 8933SOL    HW238859   3.322   7.001   1.617
 8934SOL     OW38860   2.094   6.390   1.380
 8934SOL    HW138861   2.106   6.300   1.421
 8934SOL    HW238862   2.074   6.457   1.451
 8935SOL     OW38863   2.563   6.931   0.077
 8935SOL    HW138864   2.524   7.021   0.096
 8935SOL    HW238865   2.649   6.920   0.127
 8936SOL     OW38866   2.451   7.306   1.025
 8936SOL    HW138867   2.468   7.241   0.951
 8936SOL    HW238868   2.363   7.287   1.067
 8937SOL     OW38869   2.593   6.663   0.751
 8937SOL    HW138870   2.671   6.707   0.793
 8937SOL    HW238871   2.554   6.595   0.814
 8938SOL     OW38872   2.778   7.051   0.526
 8938SOL    HW138873   2.836   7.066   0.446
 8938SOL    HW238874   2.721   6.970   0.512
 8939SOL     OW38875   1.974   6.400   0.911
 8939SOL    HW138876   2.058   6.397   0.856
 8939SOL    HW238877   1.897   6.427   0.853
 8940SOL     OW38878   1.903   6.441   1.826
 8940SOL    HW138879   1.803   6.443   1.822
 8940SOL    HW238880   1.933   6.389   1.906
 8941SOL     OW38881   2.839   7.256   1.365
 8941SOL    HW138882   2.778   7.229   1.439
 8941SOL    HW238883   2.785   7.280   1.284
 8942SOL     OW38884   3.044   6.686   1.018
 8942SOL    HW138885   3.074   6.781   1.018
 8942SOL    HW238886   3.090   6.637   1.093
 8943SOL     OW38887   2.383   5.934   1.796
 8943SOL    HW138888   2.453   5.921   1.726
 8943SOL    HW238889   2.384   6.029   1.827
 8944SOL     OW38890   2.368   6.416   0.347
 8944SOL    HW138891   2.343   6.508   0.316
 8944SOL    HW238892   2.296   6.380   0.406
 8945SOL     OW38893   3.157   5.832   1.431
 8945SOL    HW138894   3.165   5.788   1.520
 8945SOL    HW238895   3.083   5.789   1.379
 8946SOL     OW38896   1.840   5.653   0.479
 8946SOL    HW138897   1.743   5.641   0.501
 8946SOL    HW238898   1.858   5.749   0.460
 8947SOL     OW38899   3.122   5.716   1.681
 8947SOL    HW138900   3.176   5.708   1.765
 8947SOL    HW238901   3.040   5.769   1.700
 8948SOL     OW38902   2.300   7.048   1.588
 8948SOL    HW138903   2.278   7.096   1.674
 8948SOL    HW238904   2.342   7.112   1.524
 8949SOL     OW38905   3.631   6.969   1.535
 8949SOL    HW138906   3.666   7.061   1.554
 8949SOL    HW238907   3.541   6.958   1.578
 8950SOL     OW38908   2.863   6.038   1.071
 8950SOL    HW138909   2.941   6.064   1.129
 8950SOL    HW238910   2.863   5.939   1.058
 8951SOL     OW38911   2.280   7.023   0.679
 8951SOL    HW138912   2.288   6.924   0.692
 8951SOL    HW238913   2.184   7.050   0.682
 8952SOL     OW38914   3.009   7.105   1.204
 8952SOL    HW138915   2.941   7.150   1.261
 8952SOL    HW238916   3.088   7.165   1.193
 8953SOL     OW38917   2.266   7.181   1.823
 8953SOL    HW138918   2.340   7.244   1.800
 8953SOL    HW238919   2.204   7.224   1.888
 8954SOL     OW38920   1.945   6.779   1.674
 8954SOL    HW138921   1.973   6.688   1.644
 8954SOL    HW238922   1.846   6.788   1.668
 8955SOL     OW38923   2.155   7.214   1.064
 8955SOL    HW138924   2.101   7.130   1.073
 8955SOL    HW238925   2.151   7.246   0.969
 8956SOL     OW38926   2.852   5.779   0.982
 8956SOL    HW138927   2.949   5.785   0.962
 8956SOL    HW238928   2.837   5.710   1.053
 8957SOL     OW38929   2.923   6.750   0.419
 8957SOL    HW138930   3.007   6.768   0.469
 8957SOL    HW238931   2.867   6.684   0.469
 8958SOL     OW38932   3.494   5.984   0.761
 8958SOL    HW138933   3.523   6.068   0.808
 8958SOL    HW238934   3.537   5.905   0.805
 8959SOL     OW38935   2.615   6.679   0.272
 8959SOL    HW138936   2.683   6.747   0.244
 8959SOL    HW238937   2.626   6.596   0.217
 8960SOL     OW38938   2.726   5.743   0.168
 8960SOL    HW138939   2.762   5.651   0.148
 8960SOL    HW238940   2.791   5.792   0.225
 8961SOL     OW38941   2.438   6.032   0.761
 8961SOL    HW138942   2.509   5.969   0.792
 8961SOL    HW238943   2.474   6.090   0.688
 8962SOL     OW38944   2.416   6.551   1.431
 8962SOL    HW138945   2.509   6.524   1.455
 8962SOL    HW238946   2.419   6.633   1.374
 8963SOL     OW38947   2.050   6.797   0.092
 8963SOL    HW138948   1.965   6.840   0.061
 8963SOL    HW238949   2.101   6.862   0.149
 8964SOL     OW38950   2.442   7.168   0.195
 8964SOL    HW138951   2.467   7.265   0.192
 8964SOL    HW238952   2.458   7.133   0.287
 8965SOL     OW38953   3.147   6.651   1.485
 8965SOL    HW138954   3.090   6.619   1.560
 8965SOL    HW238955   3.134   6.749   1.471
 8966SOL     OW38956   2.418   7.241   1.430
 8966SOL    HW138957   2.446   7.296   1.509
 8966SOL    HW238958   2.370   7.299   1.364
 8967SOL     OW38959   2.038   6.110   1.784
 8967SOL    HW138960   2.033   6.012   1.767
 8967SOL    HW238961   2.095   6.127   1.864
 8968SOL     OW38962   3.470   7.106   1.079
 8968SOL    HW138963   3.542   7.175   1.067
 8968SOL    HW238964   3.501   7.036   1.144
 8969SOL     OW38965   1.810   6.479   0.688
 8969SOL    HW138966   1.837   6.556   0.630
 8969SOL    HW238967   1.711   6.476   0.696
 8970SOL     OW38968   2.382   6.269   1.487
 8970SOL    HW138969   2.292   6.226   1.495
 8970SOL    HW238970   2.371   6.364   1.456
 8971SOL     OW38971   3.510   6.721   0.874
 8971SOL    HW138972   3.480   6.816   0.861
 8971SOL    HW238973   3.454   6.661   0.816
 8972SOL     OW38974   2.591   6.065   1.028
 8972SOL    HW138975   2.689   6.058   1.050
 8972SOL    HW238976   2.551   6.141   1.079
 8973SOL     OW38977   2.451   6.782   1.279
 8973SOL    HW138978   2.360   6.807   1.246
 8973SOL    HW238979   2.510   6.761   1.201
 8974SOL     OW38980   2.007   6.257   1.152
 8974SOL    HW138981   2.032   6.319   1.226
 8974SOL    HW238982   1.996   6.308   1.067
 8975SOL     OW38983   2.107   6.892   1.478
 8975SOL    HW138984   2.179   6.950   1.517
 8975SOL    HW238985   2.048   6.858   1.551
 8976SOL     OW38986   3.182   6.778   0.520
 8976SOL    HW138987   3.268   6.798   0.567
 8976SOL    HW238988   3.201   6.731   0.434
 8977SOL     OW38989   2.534   5.872   0.510
 8977SOL    HW138990   2.436   5.854   0.504
 8977SOL    HW238991   2.564   5.862   0.605
 8978SOL     OW38992   3.575   5.583   0.660
 8978SOL    HW138993   3.510   5.597   0.586
 8978SOL    HW238994   3.559   5.652   0.731
 8979SOL     OW38995   3.017   6.286   1.434
 8979SOL    HW138996   3.080   6.336   1.493
 8979SOL    HW238997   2.983   6.346   1.362
 8980SOL     OW38998   2.647   6.262   0.827
 8980SOL    HW138999   2.623   6.185   0.887
 8980SOL    HW239000   2.638   6.234   0.732
 8981SOL     OW39001   3.132   6.939   1.033
 8981SOL    HW139002   3.073   6.992   1.093
 8981SOL    HW239003   3.145   6.989   0.947
 8982SOL     OW39004   3.218   5.973   0.756
 8982SOL    HW139005   3.199   5.975   0.658
 8982SOL    HW239006   3.317   5.980   0.771
 8983SOL     OW39007   2.935   7.014   2.563
 8983SOL    HW139008   3.020   7.066   2.568
 8983SOL    HW239009   2.899   7.017   2.469
 8984SOL     OW39010   3.465   6.818   2.400
 8984SOL    HW139011   3.478   6.872   2.483
 8984SOL    HW239012   3.551   6.774   2.374
 8985SOL     OW39013   3.468   6.210   3.234
 8985SOL    HW139014   3.399   6.157   3.284
 8985SOL    HW239015   3.524   6.261   3.300
 8986SOL     OW39016   2.207   5.739   1.850
 8986SOL    HW139017   2.126   5.765   1.798
 8986SOL    HW239018   2.281   5.804   1.831
 8987SOL     OW39019   3.046   5.583   3.196
 8987SOL    HW139020   2.964   5.556   3.246
 8987SOL    HW239021   3.068   5.513   3.127
 8988SOL     OW39022   2.837   6.423   3.617
 8988SOL    HW139023   2.820   6.362   3.539
 8988SOL    HW239024   2.751   6.446   3.662
 8989SOL     OW39025   2.408   7.014   2.252
 8989SOL    HW139026   2.364   7.043   2.337
 8989SOL    HW239027   2.479   6.946   2.273
 8990SOL     OW39028   2.389   5.573   1.994
 8990SOL    HW139029   2.483   5.608   1.994
 8990SOL    HW239030   2.330   5.635   1.943
 8991SOL     OW39031   3.434   6.594   3.387
 8991SOL    HW139032   3.340   6.621   3.367
 8991SOL    HW239033   3.493   6.619   3.310
 8992SOL     OW39034   3.272   6.607   3.066
 8992SOL    HW139035   3.229   6.614   3.155
 8992SOL    HW239036   3.316   6.694   3.042
 8993SOL     OW39037   2.853   6.913   3.318
 8993SOL    HW139038   2.782   6.980   3.296
 8993SOL    HW239039   2.841   6.833   3.259
 8994SOL     OW39040   2.347   6.759   2.555
 8994SOL    HW139041   2.296   6.701   2.619
 8994SOL    HW239042   2.444   6.736   2.559
 8995SOL     OW39043   2.562   6.153   2.444
 8995SOL    HW139044   2.589   6.230   2.385
 8995SOL    HW239045   2.540   6.074   2.388
 8996SOL     OW39046   3.121   6.069   3.596
 8996SOL    HW139047   3.217   6.056   3.620
 8996SOL    HW239048   3.071   5.984   3.613
 8997SOL     OW39049   2.262   6.959   2.019
 8997SOL    HW139050   2.282   7.024   1.946
 8997SOL    HW239051   2.320   6.980   2.098
 8998SOL     OW39052   2.475   5.872   2.810
 8998SOL    HW139053   2.524   5.956   2.835
 8998SOL    HW239054   2.541   5.805   2.775
 8999SOL     OW39055   2.195   6.281   2.328
 8999SOL    HW139056   2.239   6.314   2.411
 8999SOL    HW239057   2.099   6.260   2.346
 9000SOL     OW39058   2.677   7.219   2.422
 9000SOL    HW139059   2.737   7.155   2.373
 9000SOL    HW239060   2.653   7.295   2.362
 9001SOL     OW39061   3.499   5.866   2.985
 9001SOL    HW139062   3.539   5.957   2.997
 9001SOL    HW239063   3.400   5.873   2.980
 9002SOL     OW39064   2.908   5.924   2.197
 9002SOL    HW139065   2.962   6.008   2.204
 9002SOL    HW239066   2.908   5.877   2.285
 9003SOL     OW39067   2.030   6.535   3.442
 9003SOL    HW139068   2.121   6.573   3.462
 9003SOL    HW239069   1.988   6.503   3.528
 9004SOL     OW39070   2.377   6.210   1.871
 9004SOL    HW139071   2.350   6.306   1.879
 9004SOL    HW239072   2.451   6.202   1.805
 9005SOL     OW39073   2.515   7.169   2.628
 9005SOL    HW139074   2.576   7.195   2.552
 9005SOL    HW239075   2.441   7.112   2.593
 9006SOL     OW39076   2.836   6.196   3.442
 9006SOL    HW139077   2.877   6.120   3.492
 9006SOL    HW239078   2.905   6.237   3.382
 9007SOL     OW39079   3.463   6.971   2.648
 9007SOL    HW139080   3.502   7.007   2.732
 9007SOL    HW239081   3.439   7.047   2.587
 9008SOL     OW39082   2.188   6.775   2.331
 9008SOL    HW139083   2.247   6.768   2.412
 9008SOL    HW239084   2.234   6.735   2.252
 9009SOL     OW39085   3.036   5.850   1.964
 9009SOL    HW139086   3.121   5.803   1.986
 9009SOL    HW239087   2.986   5.872   2.048
 9010SOL     OW39088   2.158   6.039   3.059
 9010SOL    HW139089   2.168   5.950   3.015
 9010SOL    HW239090   2.069   6.077   3.036
 9011SOL     OW39091   3.251   6.336   3.125
 9011SOL    HW139092   3.265   6.432   3.103
 9011SOL    HW239093   3.336   6.297   3.160
 9012SOL     OW39094   2.245   5.883   2.317
 9012SOL    HW139095   2.183   5.890   2.396
 9012SOL    HW239096   2.192   5.863   2.235
 9013SOL     OW39097   3.409   7.325   3.158
 9013SOL    HW139098   3.358   7.378   3.090
 9013SOL    HW239099   3.497   7.298   3.119
 9014SOL     OW39100   3.592   6.119   3.009
 9014SOL    HW139101   3.686   6.153   3.005
 9014SOL    HW239102   3.548   6.154   3.092
 9015SOL     OW39103   3.661   7.279   3.044
 9015SOL    HW139104   3.699   7.321   3.127
 9015SOL    HW239105   3.735   7.255   2.981
 9016SOL     OW39106   2.808   6.034   2.499
 9016SOL    HW139107   2.869   6.092   2.553
 9016SOL    HW239108   2.721   6.081   2.485
 9017SOL     OW39109   3.077   6.476   1.991
 9017SOL    HW139110   3.108   6.447   2.081
 9017SOL    HW239111   3.031   6.400   1.946
 9018SOL     OW39112   2.984   5.843   3.662
 9018SOL    HW139113   3.020   5.835   3.755
 9018SOL    HW239114   2.891   5.806   3.659
 9019SOL     OW39115   3.602   6.223   2.207
 9019SOL    HW139116   3.552   6.137   2.221
 9019SOL    HW239117   3.664   6.237   2.284
 9020SOL     OW39118   2.810   7.270   2.030
 9020SOL    HW139119   2.891   7.230   1.986
 9020SOL    HW239120   2.773   7.206   2.097
 9021SOL     OW39121   2.608   5.595   3.541
 9021SOL    HW139122   2.625   5.496   3.538
 9021SOL    HW239123   2.659   5.635   3.618
 9022SOL     OW39124   3.535   6.222   2.761
 9022SOL    HW139125   3.490   6.311   2.772
 9022SOL    HW239126   3.547   6.180   2.850
 9023SOL     OW39127   2.956   6.878   3.584
 9023SOL    HW139128   2.997   6.787   3.578
 9023SOL    HW239129   2.909   6.899   3.499
 9024SOL     OW39130   2.595   6.684   3.582
 9024SOL    HW139131   2.536   6.764   3.595
 9024SOL    HW239132   2.590   6.625   3.662
 9025SOL     OW39133   3.573   5.744   3.608
 9025SOL    HW139134   3.534   5.770   3.696
 9025SOL    HW239135   3.522   5.666   3.571
 9026SOL     OW39136   1.939   6.238   2.425
 9026SOL    HW139137   1.940   6.170   2.498
 9026SOL    HW239138   1.913   6.327   2.463
 9027SOL     OW39139   2.050   5.696   2.735
 9027SOL    HW139140   2.107   5.743   2.803
 9027SOL    HW239141   2.057   5.598   2.748
 9028SOL     OW39142   2.228   5.795   2.932
 9028SOL    HW139143   2.239   5.707   2.979
 9028SOL    HW239144   2.315   5.821   2.891
 9029SOL     OW39145   2.916   6.388   2.799
 9029SOL    HW139146   2.953   6.468   2.751
 9029SOL    HW239147   2.931   6.306   2.744
 9030SOL     OW39148   2.075   7.012   2.241
 9030SOL    HW139149   2.104   6.924   2.278
 9030SOL    HW239150   2.122   7.030   2.156
 9031SOL     OW39151   3.318   6.886   3.046
 9031SOL    HW139152   3.286   6.915   2.956
 9031SOL    HW239153   3.246   6.905   3.114
 9032SOL     OW39154   2.056   7.122   2.499
 9032SOL    HW139155   1.960   7.126   2.525
 9032SOL    HW239156   2.064   7.096   2.403
 9033SOL     OW39157   3.585   6.922   3.114
 9033SOL    HW139158   3.603   6.960   3.205
 9033SOL    HW239159   3.487   6.911   3.101
 9034SOL     OW39160   2.332   6.483   1.892
 9034SOL    HW139161   2.312   6.527   1.805
 9034SOL    HW239162   2.304   6.542   1.968
 9035SOL     OW39163   2.814   6.697   3.148
 9035SOL    HW139164   2.854   6.608   3.123
 9035SOL    HW239165   2.758   6.730   3.072
 9036SOL     OW39166   1.964   6.314   2.057
 9036SOL    HW139167   2.042   6.252   2.064
 9036SOL    HW239168   1.887   6.276   2.108
 9037SOL     OW39169   3.437   6.445   2.246
 9037SOL    HW139170   3.497   6.366   2.231
 9037SOL    HW239171   3.455   6.513   2.175
 9038SOL     OW39172   2.749   7.332   2.912
 9038SOL    HW139173   2.768   7.252   2.855
 9038SOL    HW239174   2.650   7.351   2.910
 9039SOL     OW39175   2.603   6.449   1.939
 9039SOL    HW139176   2.633   6.362   1.979
 9039SOL    HW239177   2.503   6.448   1.930
 9040SOL     OW39178   3.216   5.960   2.288
 9040SOL    HW139179   3.175   6.029   2.228
 9040SOL    HW239180   3.315   5.971   2.287
 9041SOL     OW39181   2.203   6.188   3.283
 9041SOL    HW139182   2.188   6.122   3.210
 9041SOL    HW239183   2.165   6.152   3.368
 9042SOL     OW39184   2.872   6.441   3.064
 9042SOL    HW139185   2.885   6.419   2.967
 9042SOL    HW239186   2.794   6.389   3.100
 9043SOL     OW39187   3.501   5.973   2.303
 9043SOL    HW139188   3.583   5.917   2.294
 9043SOL    HW239189   3.484   5.993   2.400
 9044SOL     OW39190   2.764   7.121   2.748
 9044SOL    HW139191   2.828   7.083   2.681
 9044SOL    HW239192   2.672   7.125   2.707
 9045SOL     OW39193   2.667   5.936   2.078
 9045SOL    HW139194   2.598   5.937   2.150
 9045SOL    HW239195   2.758   5.931   2.120
 9046SOL     OW39196   2.821   6.839   1.987
 9046SOL    HW139197   2.884   6.817   2.062
 9046SOL    HW239198   2.871   6.837   1.901
 9047SOL     OW39199   3.393   7.192   2.496
 9047SOL    HW139200   3.413   7.286   2.526
 9047SOL    HW239201   3.419   7.181   2.400
 9048SOL     OW39202   3.041   6.445   2.445
 9048SOL    HW139203   3.083   6.472   2.532
 9048SOL    HW239204   2.953   6.492   2.435
 9049SOL     OW39205   2.680   7.182   3.502
 9049SOL    HW139206   2.642   7.129   3.426
 9049SOL    HW239207   2.684   7.126   3.584
 9050SOL     OW39208   3.178   6.513   2.676
 9050SOL    HW139209   3.255   6.477   2.729
 9050SOL    HW239210   3.138   6.591   2.725
 9051SOL     OW39211   2.192   6.609   2.726
 9051SOL    HW139212   2.109   6.662   2.708
 9051SOL    HW239213   2.198   6.589   2.824
 9052SOL     OW39214   2.793   6.559   2.385
 9052SOL    HW139215   2.747   6.482   2.340
 9052SOL    HW239216   2.732   6.598   2.454
 9053SOL     OW39217   3.124   6.933   3.239
 9053SOL    HW139218   3.167   7.017   3.271
 9053SOL    HW239219   3.025   6.938   3.254
 9054SOL     OW39220   1.908   5.880   2.275
 9054SOL    HW139221   1.971   5.887   2.198
 9054SOL    HW239222   1.959   5.885   2.360
 9055SOL     OW39223   2.688   6.318   3.234
 9055SOL    HW139224   2.677   6.407   3.279
 9055SOL    HW239225   2.736   6.255   3.295
 9056SOL     OW39226   1.894   7.379   3.252
 9056SOL    HW139227   1.857   7.472   3.249
 9056SOL    HW239228   1.903   7.350   3.347
 9057SOL     OW39229   2.643   6.351   2.268
 9057SOL    HW139230   2.552   6.386   2.246
 9057SOL    HW239231   2.681   6.302   2.190
 9058SOL     OW39232   2.161   6.162   2.785
 9058SOL    HW139233   2.227   6.127   2.719
 9058SOL    HW239234   2.194   6.143   2.878
 9059SOL     OW39235   2.143   7.317   2.041
 9059SOL    HW139236   2.225   7.361   2.006
 9059SOL    HW239237   2.135   7.332   2.139
 9060SOL     OW39238   1.961   6.768   2.751
 9060SOL    HW139239   1.883   6.817   2.712
 9060SOL    HW239240   1.928   6.701   2.818
 9061SOL     OW39241   1.936   6.664   2.368
 9061SOL    HW139242   2.024   6.710   2.378
 9061SOL    HW239243   1.926   6.632   2.274
 9062SOL     OW39244   3.434   5.852   3.388
 9062SOL    HW139245   3.391   5.942   3.392
 9062SOL    HW239246   3.485   5.835   3.472
 9063SOL     OW39247   3.072   5.851   2.776
 9063SOL    HW139248   3.114   5.888   2.694
 9063SOL    HW239249   3.137   5.855   2.852
 9064SOL     OW39250   3.267   5.711   2.032
 9064SOL    HW139251   3.340   5.649   2.003
 9064SOL    HW239252   3.223   5.675   2.114
 9065SOL     OW39253   3.407   5.552   3.494
 9065SOL    HW139254   3.406   5.527   3.397
 9065SOL    HW239255   3.320   5.596   3.518
 9066SOL     OW39256   3.116   6.168   2.961
 9066SOL    HW139257   3.101   6.218   2.876
 9066SOL    HW239258   3.161   6.227   3.028
 9067SOL     OW39259   3.359   5.661   2.417
 9067SOL    HW139260   3.421   5.652   2.338
 9067SOL    HW239261   3.265   5.665   2.385
 9068SOL     OW39262   2.430   6.925   3.625
 9068SOL    HW139263   2.385   6.993   3.567
 9068SOL    HW239264   2.518   6.960   3.657
 9069SOL     OW39265   2.275   6.649   3.502
 9069SOL    HW139266   2.333   6.635   3.421
 9069SOL    HW239267   2.279   6.745   3.529
 9070SOL     OW39268   2.043   6.972   2.922
 9070SOL    HW139269   2.037   6.902   2.851
 9070SOL    HW239270   1.950   6.995   2.953
 9071SOL     OW39271   2.986   6.152   2.677
 9071SOL    HW139272   3.064   6.105   2.636
 9071SOL    HW239273   2.948   6.094   2.750
 9072SOL     OW39274   3.607   6.157   3.576
 9072SOL    HW139275   3.603   6.237   3.517
 9072SOL    HW239276   3.701   6.123   3.580
 9073SOL     OW39277   3.228   5.917   2.992
 9073SOL    HW139278   3.195   6.011   2.985
 9073SOL    HW239279   3.209   5.881   3.083
 9074SOL     OW39280   3.382   6.019   3.653
 9074SOL    HW139281   3.464   6.069   3.626
 9074SOL    HW239282   3.406   5.951   3.722
 9075SOL     OW39283   3.174   6.379   2.225
 9075SOL    HW139284   3.123   6.403   2.308
 9075SOL    HW239285   3.270   6.403   2.237
 9076SOL     OW39286   3.412   6.519   2.511
 9076SOL    HW139287   3.416   6.500   2.413
 9076SOL    HW239288   3.318   6.516   2.543
 9077SOL     OW39289   3.606   6.376   3.406
 9077SOL    HW139290   3.539   6.449   3.397
 9077SOL    HW239291   3.698   6.414   3.401
 9078SOL     OW39292   3.444   5.925   2.028
 9078SOL    HW139293   3.470   5.946   2.122
 9078SOL    HW239294   3.375   5.853   2.029
 9079SOL     OW39295   2.577   7.055   3.283
 9079SOL    HW139296   2.512   7.129   3.261
 9079SOL    HW239297   2.552   6.973   3.232
 9080SOL     OW39298   1.919   5.859   3.539
 9080SOL    HW139299   1.885   5.950   3.516
 9080SOL    HW239300   1.851   5.810   3.592
 9081SOL     OW39301   1.906   7.271   3.507
 9081SOL    HW139302   1.994   7.282   3.553
 9081SOL    HW239303   1.832   7.269   3.575
 9082SOL     OW39304   2.043   5.873   2.513
 9082SOL    HW139305   2.005   5.953   2.559
 9082SOL    HW239306   2.052   5.798   2.578
 9083SOL     OW39307   3.252   7.157   3.328
 9083SOL    HW139308   3.181   7.214   3.369
 9083SOL    HW239309   3.308   7.212   3.267
 9084SOL     OW39310   2.188   6.144   2.067
 9084SOL    HW139311   2.266   6.164   2.008
 9084SOL    HW239312   2.208   6.177   2.160
 9085SOL     OW39313   3.572   5.710   3.203
 9085SOL    HW139314   3.525   5.764   3.273
 9085SOL    HW239315   3.555   5.749   3.113
 9086SOL     OW39316   2.193   7.313   2.646
 9086SOL    HW139317   2.136   7.253   2.590
 9086SOL    HW239318   2.285   7.320   2.606
 9087SOL     OW39319   2.224   6.844   3.090
 9087SOL    HW139320   2.211   6.869   3.186
 9087SOL    HW239321   2.161   6.897   3.033
 9088SOL     OW39322   3.023   7.142   3.665
 9088SOL    HW139323   2.998   7.048   3.643
 9088SOL    HW239324   3.036   7.194   3.581
 9089SOL     OW39325   2.594   6.827   2.324
 9089SOL    HW139326   2.606   6.766   2.246
 9089SOL    HW239327   2.602   6.774   2.409
 9090SOL     OW39328   2.287   6.391   2.564
 9090SOL    HW139329   2.246   6.465   2.617
 9090SOL    HW239330   2.364   6.353   2.615
 9091SOL     OW39331   2.100   5.878   2.075
 9091SOL    HW139332   2.143   5.825   2.002
 9091SOL    HW239333   2.130   5.974   2.068
 9092SOL     OW39334   1.935   6.084   2.652
 9092SOL    HW139335   1.852   6.112   2.699
 9092SOL    HW239336   2.015   6.109   2.706
 9093SOL     OW39337   2.339   6.689   2.104
 9093SOL    HW139338   2.439   6.695   2.099
 9093SOL    HW239339   2.299   6.768   2.056
 9094SOL     OW39340   2.962   6.240   1.890
 9094SOL    HW139341   2.899   6.292   1.832
 9094SOL    HW239342   3.023   6.186   1.833
 9095SOL     OW39343   2.718   6.214   2.037
 9095SOL    HW139344   2.809   6.217   1.994
 9095SOL    HW239345   2.685   6.120   2.038
 9096SOL     OW39346   3.121   5.705   2.283
 9096SOL    HW139347   3.037   5.700   2.336
 9096SOL    HW239348   3.154   5.799   2.281
 9097SOL     OW39349   3.261   6.071   3.349
 9097SOL    HW139350   3.207   6.098   3.429
 9097SOL    HW239351   3.214   5.997   3.300
 9098SOL     OW39352   1.932   5.615   2.017
 9098SOL    HW139353   2.004   5.548   2.032
 9098SOL    HW239354   1.961   5.704   2.053
 9099SOL     OW39355   2.194   6.585   3.000
 9099SOL    HW139356   2.175   6.521   3.074
 9099SOL    HW239357   2.215   6.675   3.039
 9100SOL     OW39358   3.497   6.603   2.033
 9100SOL    HW139359   3.595   6.614   2.049
 9100SOL    HW239360   3.481   6.588   1.935
 9101SOL     OW39361   2.495   6.201   3.083
 9101SOL    HW139362   2.561   6.249   3.140
 9101SOL    HW239363   2.406   6.201   3.128
 9102SOL     OW39364   2.688   6.562   3.357
 9102SOL    HW139365   2.743   6.621   3.298
 9102SOL    HW239366   2.668   6.610   3.443
 9103SOL     OW39367   3.026   6.609   3.536
 9103SOL    HW139368   2.945   6.555   3.557
 9103SOL    HW239369   3.108   6.554   3.556
 9104SOL     OW39370   2.897   5.785   2.445
 9104SOL    HW139371   2.863   5.876   2.468
 9104SOL    HW239372   2.888   5.725   2.525
 9105SOL     OW39373   3.052   7.308   3.444
 9105SOL    HW139374   2.966   7.323   3.394
 9105SOL    HW239375   3.088   7.396   3.475
 9106SOL     OW39376   2.162   7.379   3.137
 9106SOL    HW139377   2.153   7.329   3.052
 9106SOL    HW239378   2.075   7.377   3.187
 9107SOL     OW39379   2.842   6.794   2.702
 9107SOL    HW139380   2.874   6.874   2.651
 9107SOL    HW239381   2.919   6.754   2.752
 9108SOL     OW39382   2.515   6.546   2.784
 9108SOL    HW139383   2.532   6.452   2.753
 9108SOL    HW239384   2.429   6.549   2.834
 9109SOL     OW39385   1.920   6.576   2.947
 9109SOL    HW139386   2.015   6.585   2.978
 9109SOL    HW239387   1.911   6.496   2.889
 9110SOL     OW39388   2.106   5.576   2.306
 9110SOL    HW139389   2.164   5.615   2.377
 9110SOL    HW239390   2.011   5.580   2.334
 9111SOL     OW39391   2.552   6.190   3.537
 9111SOL    HW139392   2.505   6.251   3.473
 9111SOL    HW239393   2.648   6.182   3.510
 9112SOL     OW39394   1.958   6.591   2.104
 9112SOL    HW139395   1.978   6.495   2.085
 9112SOL    HW239396   2.007   6.649   2.039
 9113SOL     OW39397   3.602   5.832   2.733
 9113SOL    HW139398   3.566   5.830   2.826
 9113SOL    HW239399   3.700   5.854   2.736
 9114SOL     OW39400   2.659   6.748   2.918
 9114SOL    HW139401   2.613   6.669   2.876
 9114SOL    HW239402   2.721   6.790   2.852
 9115SOL     OW39403   3.074   6.143   2.138
 9115SOL    HW139404   3.109   6.228   2.178
 9115SOL    HW239405   3.036   6.162   2.048
 9116SOL     OW39406   3.398   7.014   3.517
 9116SOL    HW139407   3.354   6.933   3.555
 9116SOL    HW239408   3.337   7.057   3.451
 9117SOL     OW39409   2.091   6.419   3.196
 9117SOL    HW139410   2.135   6.335   3.227
 9117SOL    HW239411   2.062   6.472   3.276
 9118SOL     OW39412   2.622   6.998   1.870
 9118SOL    HW139413   2.583   7.065   1.932
 9118SOL    HW239414   2.695   6.947   1.917
 9119SOL     OW39415   2.477   7.343   2.831
 9119SOL    HW139416   2.493   7.274   2.759
 9119SOL    HW239417   2.401   7.314   2.889
 9120SOL     OW39418   2.625   6.687   2.573
 9120SOL    HW139419   2.703   6.735   2.613
 9120SOL    HW239420   2.585   6.626   2.642
 9121SOL     OW39421   2.810   7.000   2.311
 9121SOL    HW139422   2.876   6.934   2.275
 9121SOL    HW239423   2.721   6.957   2.319
 9122SOL     OW39424   1.965   6.363   2.783
 9122SOL    HW139425   2.047   6.309   2.764
 9122SOL    HW239426   1.927   6.397   2.697
 9123SOL     OW39427   1.902   6.456   3.663
 9123SOL    HW139428   1.802   6.465   3.657
 9123SOL    HW239429   1.925   6.407   3.747
 9124SOL     OW39430   2.797   7.362   3.331
 9124SOL    HW139431   2.765   7.295   3.399
 9124SOL    HW239432   2.721   7.422   3.306
 9125SOL     OW39433   3.070   6.706   2.836
 9125SOL    HW139434   3.123   6.790   2.821
 9125SOL    HW239435   3.086   6.674   2.929
 9126SOL     OW39436   2.329   5.924   3.582
 9126SOL    HW139437   2.391   5.876   3.519
 9126SOL    HW239438   2.378   5.999   3.626
 9127SOL     OW39439   2.393   6.432   2.207
 9127SOL    HW139440   2.360   6.523   2.181
 9127SOL    HW239441   2.318   6.380   2.247
 9128SOL     OW39442   3.406   6.478   2.836
 9128SOL    HW139443   3.458   6.553   2.796
 9128SOL    HW239444   3.371   6.505   2.926
 9129SOL     OW39445   3.188   5.817   3.243
 9129SOL    HW139446   3.270   5.797   3.297
 9129SOL    HW239447   3.136   5.733   3.230
 9130SOL     OW39448   1.846   5.627   2.359
 9130SOL    HW139449   1.751   5.600   2.344
 9130SOL    HW239450   1.860   5.721   2.328
 9131SOL     OW39451   3.176   5.656   3.601
 9131SOL    HW139452   3.214   5.638   3.692
 9131SOL    HW239453   3.112   5.732   3.606
 9132SOL     OW39454   2.302   7.132   3.483
 9132SOL    HW139455   2.247   7.192   3.542
 9132SOL    HW239456   2.343   7.186   3.410
 9133SOL     OW39457   3.635   7.007   3.375
 9133SOL    HW139458   3.683   7.091   3.401
 9133SOL    HW239459   3.550   7.000   3.427
 9134SOL     OW39460   2.885   6.019   2.902
 9134SOL    HW139461   2.951   6.074   2.954
 9134SOL    HW239462   2.930   5.937   2.868
 9135SOL     OW39463   2.312   7.028   2.519
 9135SOL    HW139464   2.321   6.930   2.537
 9135SOL    HW239465   2.216   7.054   2.524
 9136SOL     OW39466   2.880   7.199   3.125
 9136SOL    HW139467   2.847   7.249   3.205
 9136SOL    HW239468   2.842   7.241   3.042
 9137SOL     OW39469   2.145   7.305   3.642
 9137SOL    HW139470   2.169   7.402   3.644
 9137SOL    HW239471   2.142   7.270   3.736
 9138SOL     OW39472   2.001   6.813   3.520
 9138SOL    HW139473   1.979   6.723   3.482
 9138SOL    HW239474   1.932   6.879   3.491
 9139SOL     OW39475   2.123   7.239   2.904
 9139SOL    HW139476   2.109   7.140   2.907
 9139SOL    HW239477   2.147   7.266   2.811
 9140SOL     OW39478   2.876   5.677   2.704
 9140SOL    HW139479   2.952   5.736   2.729
 9140SOL    HW239480   2.854   5.615   2.780
 9141SOL     OW39481   2.939   6.765   2.244
 9141SOL    HW139482   3.034   6.764   2.274
 9141SOL    HW239483   2.890   6.689   2.286
 9142SOL     OW39484   3.465   6.019   2.579
 9142SOL    HW139485   3.485   6.102   2.630
 9142SOL    HW239486   3.510   5.941   2.623
 9143SOL     OW39487   2.614   6.687   2.086
 9143SOL    HW139488   2.686   6.745   2.049
 9143SOL    HW239489   2.623   6.595   2.048
 9144SOL     OW39490   2.647   5.670   1.978
 9144SOL    HW139491   2.733   5.620   1.987
 9144SOL    HW239492   2.660   5.764   2.010
 9145SOL     OW39493   2.346   6.042   2.626
 9145SOL    HW139494   2.390   5.972   2.681
 9145SOL    HW239495   2.410   6.077   2.558
 9146SOL     OW39496   2.432   6.612   3.282
 9146SOL    HW139497   2.524   6.587   3.311
 9146SOL    HW239498   2.438   6.695   3.226
 9147SOL     OW39499   3.590   6.650   3.169
 9147SOL    HW139500   3.598   6.748   3.148
 9147SOL    HW239501   3.638   6.597   3.099
 9148SOL     OW39502   2.081   6.763   1.925
 9148SOL    HW139503   2.038   6.778   1.836
 9148SOL    HW239504   2.137   6.842   1.949
 9149SOL     OW39505   2.500   7.170   2.045
 9149SOL    HW139506   2.460   7.261   2.039
 9149SOL    HW239507   2.472   7.127   2.131
 9150SOL     OW39508   3.178   6.675   3.314
 9150SOL    HW139509   3.115   6.647   3.386
 9150SOL    HW239510   3.159   6.771   3.290
 9151SOL     OW39511   2.395   7.281   3.265
 9151SOL    HW139512   2.459   7.358   3.268
 9151SOL    HW239513   2.311   7.308   3.219
 9152SOL     OW39514   2.119   6.114   3.541
 9152SOL    HW139515   2.157   6.022   3.546
 9152SOL    HW239516   2.173   6.175   3.598
 9153SOL     OW39517   3.542   7.075   2.883
 9153SOL    HW139518   3.561   7.169   2.914
 9153SOL    HW239519   3.560   7.011   2.958
 9154SOL     OW39520   1.857   6.465   2.549
 9154SOL    HW139521   1.884   6.543   2.493
 9154SOL    HW239522   1.757   6.458   2.550
 9155SOL     OW39523   2.406   6.347   3.372
 9155SOL    HW139524   2.327   6.293   3.340
 9155SOL    HW239525   2.401   6.439   3.333
 9156SOL     OW39526   3.510   6.701   2.697
 9156SOL    HW139527   3.491   6.798   2.681
 9156SOL    HW239528   3.477   6.647   2.619
 9157SOL     OW39529   2.618   6.096   2.866
 9157SOL    HW139530   2.714   6.075   2.883
 9157SOL    HW239531   2.578   6.136   2.949
 9158SOL     OW39532   2.496   6.839   3.125
 9158SOL    HW139533   2.401   6.850   3.096
 9158SOL    HW239534   2.552   6.816   3.046
 9159SOL     OW39535   1.947   6.231   3.027
 9159SOL    HW139536   1.979   6.299   3.093
 9159SOL    HW239537   1.942   6.272   2.936
 9160SOL     OW39538   2.193   6.917   3.350
 9160SOL    HW139539   2.234   6.997   3.393
 9160SOL    HW239540   2.124   6.878   3.411
 9161SOL     OW39541   3.498   7.248   3.637
 9161SOL    HW139542   3.463   7.157   3.611
 9161SOL    HW239543   3.470   7.315   3.568
 9162SOL     OW39544   3.208   6.758   2.313
 9162SOL    HW139545   3.298   6.778   2.350
 9162SOL    HW239546   3.216   6.731   2.217
 9163SOL     OW39547   2.511   5.921   2.307
 9163SOL    HW139548   2.412   5.910   2.307
 9163SOL    HW239549   2.553   5.838   2.345
 9164SOL     OW39550   3.564   5.602   2.588
 9164SOL    HW139551   3.478   5.611   2.539
 9164SOL    HW239552   3.574   5.677   2.653
 9165SOL     OW39553   3.008   6.309   3.267
 9165SOL    HW139554   3.106   6.304   3.247
 9165SOL    HW239555   2.962   6.364   3.198
 9166SOL     OW39556   2.530   6.291   2.684
 9166SOL    HW139557   2.559   6.227   2.755
 9166SOL    HW239558   2.546   6.251   2.594
 9167SOL     OW39559   3.220   6.931   2.784
 9167SOL    HW139560   3.163   7.002   2.743
 9167SOL    HW239561   3.308   6.927   2.737
 9168SOL     OW39562   3.188   5.992   2.567
 9168SOL    HW139563   3.173   5.974   2.470
 9168SOL    HW239564   3.286   6.003   2.585
 9169SOL     OW39565   2.919   6.997   4.432
 9169SOL    HW139566   3.011   7.036   4.439
 9169SOL    HW239567   2.881   7.016   4.342
 9170SOL     OW39568   3.442   6.913   4.240
 9170SOL    HW139569   3.449   6.967   4.324
 9170SOL    HW239570   3.534   6.889   4.208
 9171SOL     OW39571   2.132   5.760   3.675
 9171SOL    HW139572   2.053   5.792   3.622
 9171SOL    HW239573   2.213   5.812   3.647
 9172SOL     OW39574   3.172   7.108   4.487
 9172SOL    HW139575   3.172   7.208   4.499
 9172SOL    HW239576   3.266   7.077   4.468
 9173SOL     OW39577   3.122   5.605   4.972
 9173SOL    HW139578   3.161   5.635   5.059
 9173SOL    HW239579   3.195   5.567   4.914
 9174SOL     OW39580   2.410   7.022   4.099
 9174SOL    HW139581   2.363   7.047   4.184
 9174SOL    HW239582   2.484   6.958   4.120
 9175SOL     OW39583   3.393   6.606   5.257
 9175SOL    HW139584   3.316   6.665   5.236
 9175SOL    HW239585   3.476   6.642   5.215
 9176SOL     OW39586   3.186   6.636   4.936
 9176SOL    HW139587   3.168   6.667   5.029
 9176SOL    HW239588   3.268   6.680   4.901
 9177SOL     OW39589   2.766   6.904   5.155
 9177SOL    HW139590   2.689   6.964   5.131
 9177SOL    HW239591   2.788   6.845   5.078
 9178SOL     OW39592   2.312   6.761   4.368
 9178SOL    HW139593   2.262   6.715   4.441
 9178SOL    HW239594   2.409   6.735   4.373
 9179SOL     OW39595   2.554   6.172   4.274
 9179SOL    HW139596   2.582   6.250   4.218
 9179SOL    HW239597   2.531   6.095   4.215
 9180SOL     OW39598   3.213   5.999   5.523
 9180SOL    HW139599   3.295   6.021   5.576
 9180SOL    HW239600   3.170   5.917   5.561
 9181SOL     OW39601   2.283   6.924   3.867
 9181SOL    HW139602   2.338   6.938   3.784
 9181SOL    HW239603   2.326   6.971   3.944
 9182SOL     OW39604   2.411   5.860   4.735
 9182SOL    HW139605   2.444   5.954   4.719
 9182SOL    HW239606   2.489   5.797   4.731
 9183SOL     OW39607   2.176   6.299   4.185
 9183SOL    HW139608   2.209   6.329   4.275
 9183SOL    HW239609   2.078   6.279   4.190
 9184SOL     OW39610   2.644   7.249   4.302
 9184SOL    HW139611   2.702   7.181   4.258
 9184SOL    HW239612   2.628   7.325   4.239
 9185SOL     OW39613   3.645   7.169   4.115
 9185SOL    HW139614   3.735   7.131   4.099
 9185SOL    HW239615   3.613   7.216   4.033
 9186SOL     OW39616   2.913   5.952   4.094
 9186SOL    HW139617   2.973   6.030   4.075
 9186SOL    HW239618   2.882   5.956   4.189
 9187SOL     OW39619   1.996   6.540   5.248
 9187SOL    HW139620   2.074   6.603   5.244
 9187SOL    HW239621   1.969   6.527   5.344
 9188SOL     OW39622   2.331   6.226   3.697
 9188SOL    HW139623   2.322   6.325   3.710
 9188SOL    HW239624   2.415   6.206   3.647
 9189SOL     OW39625   2.483   7.168   4.500
 9189SOL    HW139626   2.543   7.207   4.431
 9189SOL    HW239627   2.416   7.108   4.455
 9190SOL     OW39628   3.449   7.053   4.495
 9190SOL    HW139629   3.442   7.076   4.592
 9190SOL    HW239630   3.521   7.107   4.452
 9191SOL     OW39631   2.135   6.810   4.157
 9191SOL    HW139632   2.202   6.791   4.228
 9191SOL    HW239633   2.142   6.741   4.085
 9192SOL     OW39634   3.062   5.801   3.915
 9192SOL    HW139635   3.118   5.738   3.968
 9192SOL    HW239636   3.003   5.854   3.977
 9193SOL     OW39637   2.203   6.073   4.866
 9193SOL    HW139638   2.189   5.976   4.888
 9193SOL    HW239639   2.115   6.120   4.862
 9194SOL     OW39640   3.274   6.406   5.097
 9194SOL    HW139641   3.232   6.460   5.024
 9194SOL    HW239642   3.313   6.468   5.165
 9195SOL     OW39643   2.243   5.909   4.144
 9195SOL    HW139644   2.187   5.905   4.227
 9195SOL    HW239645   2.186   5.892   4.064
 9196SOL     OW39646   3.414   7.333   4.987
 9196SOL    HW139647   3.340   7.339   4.919
 9196SOL    HW239648   3.500   7.312   4.941
 9197SOL     OW39649   3.659   7.257   4.864
 9197SOL    HW139650   3.699   7.304   4.942
 9197SOL    HW239651   3.730   7.235   4.797
 9198SOL     OW39652   2.784   6.032   4.346
 9198SOL    HW139653   2.846   6.079   4.408
 9198SOL    HW239654   2.706   6.091   4.325
 9199SOL     OW39655   3.113   6.537   3.853
 9199SOL    HW139656   3.133   6.483   3.935
 9199SOL    HW239657   3.066   6.479   3.786
 9200SOL     OW39658   2.853   7.320   3.827
 9200SOL    HW139659   2.890   7.271   3.748
 9200SOL    HW239660   2.870   7.267   3.910
 9201SOL     OW39661   2.564   5.563   5.420
 9201SOL    HW139662   2.582   5.471   5.385
 9201SOL    HW239663   2.603   5.572   5.511
 9202SOL     OW39664   2.940   6.869   5.363
 9202SOL    HW139665   2.953   6.770   5.366
 9202SOL    HW239666   2.883   6.894   5.285
 9203SOL     OW39667   3.259   5.582   4.564
 9203SOL    HW139668   3.178   5.556   4.513
 9203SOL    HW239669   3.341   5.564   4.510
 9204SOL     OW39670   3.593   5.769   5.485
 9204SOL    HW139671   3.563   5.765   5.580
 9204SOL    HW239672   3.563   5.687   5.436
 9205SOL     OW39673   1.915   6.267   4.271
 9205SOL    HW139674   1.926   6.196   4.341
 9205SOL    HW239675   1.885   6.352   4.313
 9206SOL     OW39676   2.196   5.772   4.566
 9206SOL    HW139677   2.270   5.822   4.612
 9206SOL    HW239678   2.214   5.674   4.571
 9207SOL     OW39679   2.208   5.795   4.914
 9207SOL    HW139680   2.193   5.696   4.920
 9207SOL    HW239681   2.282   5.813   4.848
 9208SOL     OW39682   2.817   6.402   4.508
 9208SOL    HW139683   2.802   6.443   4.418
 9208SOL    HW239684   2.868   6.317   4.498
 9209SOL     OW39685   2.048   7.064   4.075
 9209SOL    HW139686   2.081   6.971   4.093
 9209SOL    HW239687   2.105   7.107   4.005
 9210SOL     OW39688   3.323   6.906   4.904
 9210SOL    HW139689   3.268   6.905   4.820
 9210SOL    HW239690   3.265   6.928   4.982
 9211SOL     OW39691   2.042   7.142   4.342
 9211SOL    HW139692   1.947   7.147   4.370
 9211SOL    HW239693   2.047   7.130   4.243
 9212SOL     OW39694   3.602   6.904   4.982
 9212SOL    HW139695   3.617   6.956   5.066
 9212SOL    HW239696   3.504   6.899   4.963
 9213SOL     OW39697   2.336   6.496   3.722
 9213SOL    HW139698   2.311   6.545   3.639
 9213SOL    HW239699   2.319   6.555   3.802
 9214SOL     OW39700   2.812   6.700   4.967
 9214SOL    HW139701   2.902   6.679   4.927
 9214SOL    HW239702   2.745   6.710   4.894
 9215SOL     OW39703   1.947   6.330   3.899
 9215SOL    HW139704   2.023   6.265   3.902
 9215SOL    HW239705   1.870   6.294   3.952
 9216SOL     OW39706   3.446   6.441   4.095
 9216SOL    HW139707   3.494   6.477   4.175
 9216SOL    HW239708   3.463   6.501   4.016
 9217SOL     OW39709   2.793   7.301   4.771
 9217SOL    HW139710   2.779   7.224   4.709
 9217SOL    HW239711   2.706   7.328   4.811
 9218SOL     OW39712   2.606   6.450   3.772
 9218SOL    HW139713   2.633   6.360   3.806
 9218SOL    HW239714   2.508   6.450   3.753
 9219SOL     OW39715   3.243   5.975   4.159
 9219SOL    HW139716   3.197   6.037   4.096
 9219SOL    HW239717   3.339   5.966   4.132
 9220SOL     OW39718   2.091   6.151   5.178
 9220SOL    HW139719   2.072   6.060   5.142
 9220SOL    HW239720   2.079   6.152   5.277
 9221SOL     OW39721   2.032   5.887   5.104
 9221SOL    HW139722   2.099   5.851   5.040
 9221SOL    HW239723   1.941   5.855   5.078
 9222SOL     OW39724   2.785   6.407   4.776
 9222SOL    HW139725   2.792   6.415   4.677
 9222SOL    HW239726   2.734   6.485   4.812
 9223SOL     OW39727   3.510   5.939   4.085
 9223SOL    HW139728   3.583   5.881   4.123
 9223SOL    HW239729   3.540   6.034   4.084
 9224SOL     OW39730   2.736   7.094   4.612
 9224SOL    HW139731   2.802   7.059   4.546
 9224SOL    HW239732   2.647   7.105   4.568
 9225SOL     OW39733   2.695   5.927   3.931
 9225SOL    HW139734   2.615   5.927   3.991
 9225SOL    HW239735   2.778   5.930   3.985
 9226SOL     OW39736   2.830   6.842   3.846
 9226SOL    HW139737   2.885   6.821   3.927
 9226SOL    HW239738   2.888   6.845   3.765
 9227SOL     OW39739   3.634   7.213   4.382
 9227SOL    HW139740   3.585   7.298   4.402
 9227SOL    HW239741   3.635   7.198   4.283
 9228SOL     OW39742   3.039   6.497   4.278
 9228SOL    HW139743   3.067   6.500   4.374
 9228SOL    HW239744   2.940   6.510   4.272
 9229SOL     OW39745   2.732   7.185   5.273
 9229SOL    HW139746   2.659   7.145   5.218
 9229SOL    HW239747   2.788   7.112   5.311
 9230SOL     OW39748   3.120   6.501   4.540
 9230SOL    HW139749   3.100   6.409   4.575
 9230SOL    HW239750   3.083   6.570   4.603
 9231SOL     OW39751   2.170   6.636   4.567
 9231SOL    HW139752   2.079   6.676   4.557
 9231SOL    HW239753   2.184   6.608   4.662
 9232SOL     OW39754   2.769   6.529   4.261
 9232SOL    HW139755   2.726   6.469   4.194
 9232SOL    HW239756   2.699   6.585   4.305
 9233SOL     OW39757   3.124   6.988   5.079
 9233SOL    HW139758   3.168   7.063   5.130
 9233SOL    HW239759   3.056   7.026   5.017
 9234SOL     OW39760   1.904   5.878   4.134
 9234SOL    HW139761   1.962   5.884   4.053
 9234SOL    HW239762   1.961   5.878   4.216
 9235SOL     OW39763   3.552   7.332   3.902
 9235SOL    HW139764   3.633   7.390   3.890
 9235SOL    HW239765   3.523   7.297   3.814
 9236SOL     OW39766   1.906   7.443   5.036
 9236SOL    HW139767   1.864   7.534   5.045
 9236SOL    HW239768   1.900   7.395   5.123
 9237SOL     OW39769   2.638   6.359   4.093
 9237SOL    HW139770   2.544   6.385   4.071
 9237SOL    HW239771   2.677   6.307   4.017
 9238SOL     OW39772   2.186   6.106   4.590
 9238SOL    HW139773   2.258   6.064   4.535
 9238SOL    HW239774   2.208   6.095   4.687
 9239SOL     OW39775   2.167   7.289   3.926
 9239SOL    HW139776   2.254   7.328   3.895
 9239SOL    HW239777   2.151   7.314   4.022
 9240SOL     OW39778   3.217   7.278   4.791
 9240SOL    HW139779   3.208   7.323   4.702
 9240SOL    HW239780   3.290   7.209   4.785
 9241SOL     OW39781   1.912   6.737   4.614
 9241SOL    HW139782   1.822   6.734   4.570
 9241SOL    HW239783   1.911   6.676   4.694
 9242SOL     OW39784   1.868   6.703   4.212
 9242SOL    HW139785   1.941   6.769   4.228
 9242SOL    HW239786   1.881   6.659   4.123
 9243SOL     OW39787   3.355   5.845   5.342
 9243SOL    HW139788   3.288   5.907   5.382
 9243SOL    HW239789   3.445   5.865   5.381
 9244SOL     OW39790   3.285   5.579   3.843
 9244SOL    HW139791   3.379   5.548   3.854
 9244SOL    HW239792   3.222   5.504   3.863
 9245SOL     OW39793   3.407   5.586   5.336
 9245SOL    HW139794   3.409   5.547   5.244
 9245SOL    HW239795   3.381   5.682   5.331
 9246SOL     OW39796   2.611   5.819   4.360
 9246SOL    HW139797   2.651   5.728   4.372
 9246SOL    HW239798   2.683   5.888   4.365
 9247SOL     OW39799   3.418   5.582   4.144
 9247SOL    HW139800   3.448   5.554   4.053
 9247SOL    HW239801   3.328   5.626   4.138
 9248SOL     OW39802   2.203   6.708   5.270
 9248SOL    HW139803   2.299   6.695   5.243
 9248SOL    HW239804   2.200   6.761   5.355
 9249SOL     OW39805   1.991   6.959   4.755
 9249SOL    HW139806   1.963   6.890   4.688
 9249SOL    HW239807   1.918   6.972   4.822
 9250SOL     OW39808   2.954   6.162   4.519
 9250SOL    HW139809   3.029   6.102   4.491
 9250SOL    HW239810   2.925   6.139   4.611
 9251SOL     OW39811   3.463   6.034   5.648
 9251SOL    HW139812   3.539   6.049   5.585
 9251SOL    HW239813   3.464   5.939   5.679
 9252SOL     OW39814   3.182   6.392   4.076
 9252SOL    HW139815   3.132   6.432   4.153
 9252SOL    HW239816   3.280   6.405   4.089
 9253SOL     OW39817   3.312   6.645   4.399
 9253SOL    HW139818   3.265   6.681   4.318
 9253SOL    HW239819   3.251   6.584   4.449
 9254SOL     OW39820   3.585   6.402   5.302
 9254SOL    HW139821   3.520   6.476   5.286
 9254SOL    HW239822   3.584   6.339   5.225
 9255SOL     OW39823   3.438   5.821   3.840
 9255SOL    HW139824   3.464   5.859   3.929
 9255SOL    HW239825   3.366   5.753   3.853
 9256SOL     OW39826   2.544   7.067   5.101
 9256SOL    HW139827   2.477   7.141   5.097
 9256SOL    HW239828   2.511   6.989   5.047
 9257SOL     OW39829   2.021   5.841   5.375
 9257SOL    HW139830   2.031   5.854   5.276
 9257SOL    HW239831   1.929   5.808   5.396
 9258SOL     OW39832   1.881   7.305   5.273
 9258SOL    HW139833   1.945   7.321   5.348
 9258SOL    HW239834   1.796   7.357   5.289
 9259SOL     OW39835   2.062   5.892   4.357
 9259SOL    HW139836   2.014   5.969   4.398
 9259SOL    HW239837   2.116   5.845   4.427
 9260SOL     OW39838   3.256   7.202   5.181
 9260SOL    HW139839   3.194   7.273   5.215
 9260SOL    HW239840   3.322   7.244   5.118
 9261SOL     OW39841   2.165   6.159   3.915
 9261SOL    HW139842   2.235   6.180   3.846
 9261SOL    HW239843   2.199   6.186   4.005
 9262SOL     OW39844   3.641   5.735   5.047
 9262SOL    HW139845   3.543   5.748   5.063
 9262SOL    HW239846   3.655   5.660   4.982
 9263SOL     OW39847   2.209   7.310   4.498
 9263SOL    HW139848   2.148   7.270   4.429
 9263SOL    HW239849   2.303   7.281   4.481
 9264SOL     OW39850   2.207   6.839   4.886
 9264SOL    HW139851   2.195   6.878   4.977
 9264SOL    HW239852   2.142   6.881   4.823
 9265SOL     OW39853   2.605   6.836   4.164
 9265SOL    HW139854   2.616   6.774   4.086
 9265SOL    HW239855   2.597   6.782   4.248
 9266SOL     OW39856   2.230   6.392   4.440
 9266SOL    HW139857   2.219   6.484   4.478
 9266SOL    HW239858   2.311   6.349   4.479
 9267SOL     OW39859   2.078   5.894   3.923
 9267SOL    HW139860   2.095   5.838   3.842
 9267SOL    HW239861   2.104   5.989   3.904
 9268SOL     OW39862   1.936   6.097   4.484
 9268SOL    HW139863   1.863   6.139   4.538
 9268SOL    HW239864   2.023   6.109   4.531
 9269SOL     OW39865   2.349   6.669   3.942
 9269SOL    HW139866   2.449   6.676   3.947
 9269SOL    HW239867   2.310   6.757   3.918
 9270SOL     OW39868   2.978   6.236   3.759
 9270SOL    HW139869   2.935   6.310   3.707
 9270SOL    HW239870   3.036   6.182   3.699
 9271SOL     OW39871   2.723   6.211   3.875
 9271SOL    HW139872   2.816   6.218   3.841
 9271SOL    HW239873   2.697   6.114   3.881
 9272SOL     OW39874   3.174   5.708   4.158
 9272SOL    HW139875   3.101   5.695   4.225
 9272SOL    HW239876   3.202   5.805   4.157
 9273SOL     OW39877   1.830   5.518   3.829
 9273SOL    HW139878   1.839   5.555   3.921
 9273SOL    HW239879   1.813   5.592   3.764
 9274SOL     OW39880   2.201   6.566   4.833
 9274SOL    HW139881   2.197   6.504   4.911
 9274SOL    HW239882   2.210   6.660   4.866
 9275SOL     OW39883   3.498   6.612   3.889
 9275SOL    HW139884   3.589   6.653   3.890
 9275SOL    HW239885   3.470   6.595   3.795
 9276SOL     OW39886   2.427   6.205   4.947
 9276SOL    HW139887   2.407   6.270   5.020
 9276SOL    HW239888   2.343   6.157   4.921
 9277SOL     OW39889   2.721   6.631   5.224
 9277SOL    HW139890   2.755   6.628   5.130
 9277SOL    HW239891   2.723   6.726   5.257
 9278SOL     OW39892   2.979   6.603   5.340
 9278SOL    HW139893   2.888   6.571   5.313
 9278SOL    HW239894   3.032   6.526   5.375
 9279SOL     OW39895   2.996   5.739   4.371
 9279SOL    HW139896   3.029   5.830   4.395
 9279SOL    HW239897   2.971   5.690   4.455
 9280SOL     OW39898   3.082   7.405   5.245
 9280SOL    HW139899   2.995   7.401   5.197
 9280SOL    HW239900   3.069   7.450   5.334
 9281SOL     OW39901   2.156   7.390   4.933
 9281SOL    HW139902   2.138   7.329   4.856
 9281SOL    HW239903   2.070   7.412   4.979
 9282SOL     OW39904   2.815   6.771   4.549
 9282SOL    HW139905   2.853   6.852   4.505
 9282SOL    HW239906   2.888   6.724   4.599
 9283SOL     OW39907   2.473   6.539   4.628
 9283SOL    HW139908   2.488   6.446   4.593
 9283SOL    HW239909   2.391   6.541   4.684
 9284SOL     OW39910   1.915   6.557   4.819
 9284SOL    HW139911   2.014   6.545   4.828
 9284SOL    HW239912   1.877   6.482   4.765
 9285SOL     OW39913   1.945   6.603   3.964
 9285SOL    HW139914   1.962   6.507   3.942
 9285SOL    HW239915   1.992   6.661   3.897
 9286SOL     OW39916   2.639   6.715   4.756
 9286SOL    HW139917   2.576   6.650   4.713
 9286SOL    HW239918   2.698   6.756   4.687
 9287SOL     OW39919   3.083   6.150   4.006
 9287SOL    HW139920   3.121   6.236   4.042
 9287SOL    HW239921   3.045   6.166   3.915
 9288SOL     OW39922   3.420   7.054   5.348
 9288SOL    HW139923   3.379   6.976   5.395
 9288SOL    HW239924   3.350   7.100   5.293
 9289SOL     OW39925   2.104   6.387   5.039
 9289SOL    HW139926   2.112   6.297   5.083
 9289SOL    HW239927   2.064   6.452   5.103
 9290SOL     OW39928   2.661   7.028   3.727
 9290SOL    HW139929   2.616   7.087   3.795
 9290SOL    HW239930   2.723   6.966   3.774
 9291SOL     OW39931   2.497   7.295   4.745
 9291SOL    HW139932   2.489   7.240   4.662
 9291SOL    HW239933   2.437   7.258   4.815
 9292SOL     OW39934   2.590   6.684   4.413
 9292SOL    HW139935   2.671   6.725   4.455
 9292SOL    HW239936   2.545   6.626   4.480
 9293SOL     OW39937   2.794   7.043   4.192
 9293SOL    HW139938   2.859   7.055   4.117
 9293SOL    HW239939   2.733   6.966   4.172
 9294SOL     OW39940   1.984   6.380   4.591
 9294SOL    HW139941   2.069   6.359   4.543
 9294SOL    HW239942   1.920   6.423   4.528
 9295SOL     OW39943   2.841   7.377   5.104
 9295SOL    HW139944   2.815   7.300   5.162
 9295SOL    HW239945   2.760   7.431   5.081
 9296SOL     OW39946   3.030   6.692   4.719
 9296SOL    HW139947   3.059   6.787   4.706
 9296SOL    HW239948   3.080   6.653   4.796
 9297SOL     OW39949   2.417   5.907   5.514
 9297SOL    HW139950   2.456   5.876   5.426
 9297SOL    HW239951   2.480   5.972   5.556
 9298SOL     OW39952   2.380   6.416   4.048
 9298SOL    HW139953   2.354   6.507   4.016
 9298SOL    HW239954   2.303   6.374   4.096
 9299SOL     OW39955   1.800   5.632   4.073
 9299SOL    HW139956   1.718   5.614   4.128
 9299SOL    HW239957   1.841   5.719   4.102
 9300SOL     OW39958   3.132   5.587   5.419
 9300SOL    HW139959   3.231   5.582   5.405
 9300SOL    HW239960   3.110   5.660   5.483
 9301SOL     OW39961   2.205   7.171   5.286
 9301SOL    HW139962   2.162   7.239   5.345
 9301SOL    HW239963   2.269   7.215   5.224
 9302SOL     OW39964   3.657   7.025   5.222
 9302SOL    HW139965   3.710   7.108   5.236
 9302SOL    HW239966   3.570   7.032   5.270
 9303SOL     OW39967   2.838   6.142   4.774
 9303SOL    HW139968   2.820   6.240   4.782
 9303SOL    HW239969   2.881   6.108   4.858
 9304SOL     OW39970   2.294   7.033   4.359
 9304SOL    HW139971   2.295   6.933   4.365
 9304SOL    HW239972   2.199   7.066   4.359
 9305SOL     OW39973   2.997   7.134   4.876
 9305SOL    HW139974   2.913   7.184   4.857
 9305SOL    HW239975   3.076   7.191   4.853
 9306SOL     OW39976   2.080   7.359   5.460
 9306SOL    HW139977   2.077   7.459   5.451
 9306SOL    HW239978   2.095   7.335   5.556
 9307SOL     OW39979   1.908   6.834   5.298
 9307SOL    HW139980   1.898   6.755   5.237
 9307SOL    HW239981   1.867   6.914   5.254
 9308SOL     OW39982   2.079   7.224   4.727
 9308SOL    HW139983   2.062   7.125   4.725
 9308SOL    HW239984   2.123   7.252   4.642
 9309SOL     OW39985   2.971   5.612   4.617
 9309SOL    HW139986   3.062   5.634   4.653
 9309SOL    HW239987   2.916   5.570   4.689
 9310SOL     OW39988   2.942   6.760   4.091
 9310SOL    HW139989   3.033   6.774   4.129
 9310SOL    HW239990   2.899   6.681   4.134
 9311SOL     OW39991   2.625   6.680   3.933
 9311SOL    HW139992   2.697   6.740   3.898
 9311SOL    HW239993   2.633   6.590   3.891
 9312SOL     OW39994   2.750   5.714   3.743
 9312SOL    HW139995   2.780   5.631   3.790
 9312SOL    HW239996   2.723   5.783   3.811
 9313SOL     OW39997   2.395   5.994   4.445
 9313SOL    HW139998   2.454   5.915   4.428
 9313SOL    HW239999   2.420   6.068   4.382
 9314SOL     OW40000   2.453   6.681   5.174
 9314SOL    HW140001   2.542   6.644   5.201
 9314SOL    HW240002   2.464   6.742   5.095
 9315SOL     OW40003   3.629   6.674   5.140
 9315SOL    HW140004   3.637   6.749   5.075
 9315SOL    HW240005   3.720   6.645   5.169
 9316SOL     OW40006   2.067   6.770   3.788
 9316SOL    HW140007   2.042   6.786   3.693
 9316SOL    HW240008   2.137   6.837   3.816
 9317SOL     OW40009   2.511   7.177   3.895
 9317SOL    HW140010   2.463   7.263   3.878
 9317SOL    HW240011   2.476   7.136   3.979
 9318SOL     OW40012   3.164   6.736   5.185
 9318SOL    HW140013   3.096   6.695   5.245
 9318SOL    HW240014   3.140   6.831   5.168
 9319SOL     OW40015   2.372   7.290   5.078
 9319SOL    HW140016   2.442   7.362   5.080
 9319SOL    HW240017   2.292   7.324   5.028
 9320SOL     OW40018   2.043   6.105   5.453
 9320SOL    HW140019   2.041   6.007   5.433
 9320SOL    HW240020   2.090   6.121   5.539
 9321SOL     OW40021   3.441   7.115   4.762
 9321SOL    HW140022   3.524   7.159   4.796
 9321SOL    HW240023   3.422   7.034   4.818
 9322SOL     OW40024   1.820   6.493   4.390
 9322SOL    HW140025   1.844   6.571   4.333
 9322SOL    HW240026   1.721   6.488   4.401
 9323SOL     OW40027   3.484   6.786   4.559
 9323SOL    HW140028   3.471   6.882   4.534
 9323SOL    HW240029   3.421   6.729   4.506
 9324SOL     OW40030   2.557   6.108   4.728
 9324SOL    HW140031   2.657   6.110   4.735
 9324SOL    HW240032   2.517   6.148   4.810
 9325SOL     OW40033   2.477   6.843   4.948
 9325SOL    HW140034   2.383   6.846   4.916
 9325SOL    HW240035   2.536   6.808   4.875
 9326SOL     OW40036   1.988   6.242   4.831
 9326SOL    HW140037   2.024   6.304   4.901
 9326SOL    HW240038   1.991   6.286   4.742
 9327SOL     OW40039   2.171   6.946   5.128
 9327SOL    HW140040   2.178   7.028   5.185
 9327SOL    HW240041   2.169   6.865   5.185
 9328SOL     OW40042   3.530   7.299   5.425
 9328SOL    HW140043   3.492   7.207   5.425
 9328SOL    HW240044   3.483   7.354   5.356
 9329SOL     OW40045   3.216   6.782   4.170
 9329SOL    HW140046   3.297   6.833   4.198
 9329SOL    HW240047   3.219   6.767   4.071
 9330SOL     OW40048   2.508   5.939   4.135
 9330SOL    HW140049   2.409   5.928   4.129
 9330SOL    HW240050   2.544   5.880   4.208
 9331SOL     OW40051   3.472   5.520   4.401
 9331SOL    HW140052   3.446   5.542   4.307
 9331SOL    HW240053   3.570   5.539   4.414
 9332SOL     OW40054   2.479   6.286   4.524
 9332SOL    HW140055   2.499   6.218   4.594
 9332SOL    HW240056   2.512   6.253   4.435
 9333SOL     OW40057   3.120   6.950   4.711
 9333SOL    HW140058   3.062   7.005   4.770
 9333SOL    HW240059   3.137   6.998   4.625
 9334SOL     OW40060   3.144   5.981   4.418
 9334SOL    HW140061   3.174   5.989   4.324
 9334SOL    HW240062   3.220   5.951   4.476
 9335SOL     OW40063   3.561   6.823   6.080
 9335SOL    HW140064   3.585   6.908   6.033
 9335SOL    HW240065   3.624   6.751   6.051
 9336SOL     OW40066   2.216   5.731   5.528
 9336SOL    HW140067   2.144   5.762   5.467
 9336SOL    HW240068   2.294   5.794   5.522
 9337SOL     OW40069   3.039   5.624   6.865
 9337SOL    HW140070   2.958   5.575   6.899
 9337SOL    HW240071   3.090   5.564   6.804
 9338SOL     OW40072   2.816   6.405   7.282
 9338SOL    HW140073   2.794   6.344   7.206
 9338SOL    HW240074   2.734   6.421   7.337
 9339SOL     OW40075   2.425   7.024   5.961
 9339SOL    HW140076   2.365   7.022   6.041
 9339SOL    HW240077   2.479   6.940   5.958
 9340SOL     OW40078   2.398   5.565   5.689
 9340SOL    HW140079   2.490   5.602   5.701
 9340SOL    HW240080   2.348   5.622   5.624
 9341SOL     OW40081   2.295   6.747   6.236
 9341SOL    HW140082   2.242   6.689   6.297
 9341SOL    HW240083   2.392   6.723   6.242
 9342SOL     OW40084   2.520   6.205   6.091
 9342SOL    HW140085   2.466   6.274   6.042
 9342SOL    HW240086   2.511   6.117   6.045
 9343SOL     OW40087   3.115   6.061   7.300
 9343SOL    HW140088   3.210   6.036   7.317
 9343SOL    HW240089   3.056   5.982   7.318
 9344SOL     OW40090   2.322   5.826   6.526
 9344SOL    HW140091   2.371   5.913   6.537
 9344SOL    HW240092   2.382   5.759   6.482
 9345SOL     OW40093   3.493   5.835   6.603
 9345SOL    HW140094   3.519   5.807   6.696
 9345SOL    HW240095   3.399   5.870   6.604
 9346SOL     OW40096   2.927   5.834   5.825
 9346SOL    HW140097   2.953   5.930   5.832
 9346SOL    HW240098   2.918   5.795   5.917
 9347SOL     OW40099   2.528   7.132   6.252
 9347SOL    HW140100   2.558   7.174   6.167
 9347SOL    HW240101   2.437   7.092   6.240
 9348SOL     OW40102   2.835   6.206   7.075
 9348SOL    HW140103   2.878   6.119   7.099
 9348SOL    HW240104   2.902   6.264   7.027
 9349SOL     OW40105   2.140   6.788   6.004
 9349SOL    HW140106   2.178   6.779   6.096
 9349SOL    HW240107   2.197   6.738   5.939
 9350SOL     OW40108   3.107   5.772   5.628
 9350SOL    HW140109   3.166   5.703   5.669
 9350SOL    HW240110   3.032   5.794   5.690
 9351SOL     OW40111   2.223   6.056   6.730
 9351SOL    HW140112   2.202   5.963   6.759
 9351SOL    HW240113   2.155   6.119   6.767
 9352SOL     OW40114   2.219   5.835   5.996
 9352SOL    HW140115   2.152   5.875   6.059
 9352SOL    HW240116   2.186   5.846   5.902
 9353SOL     OW40117   3.398   7.283   6.909
 9353SOL    HW140118   3.329   7.334   6.858
 9353SOL    HW240119   3.477   7.267   6.850
 9354SOL     OW40120   3.639   7.247   6.778
 9354SOL    HW140121   3.685   7.295   6.852
 9354SOL    HW240122   3.707   7.217   6.710
 9355SOL     OW40123   2.803   5.998   6.180
 9355SOL    HW140124   2.869   6.025   6.250
 9355SOL    HW240125   2.757   6.079   6.144
 9356SOL     OW40126   2.941   5.855   7.342
 9356SOL    HW140127   2.972   5.826   7.432
 9356SOL    HW240128   2.845   5.829   7.330
 9357SOL     OW40129   3.563   6.216   5.849
 9357SOL    HW140130   3.517   6.143   5.798
 9357SOL    HW240131   3.592   6.180   5.938
 9358SOL     OW40132   2.616   5.603   7.269
 9358SOL    HW140133   2.639   5.510   7.238
 9358SOL    HW240134   2.621   5.607   7.369
 9359SOL     OW40135   2.988   6.871   7.255
 9359SOL    HW140136   2.993   6.771   7.259
 9359SOL    HW240137   2.992   6.901   7.160
 9360SOL     OW40138   3.255   5.499   6.427
 9360SOL    HW140139   3.205   5.586   6.426
 9360SOL    HW240140   3.342   5.509   6.379
 9361SOL     OW40141   3.587   5.729   7.317
 9361SOL    HW140142   3.534   5.760   7.395
 9361SOL    HW240143   3.529   5.675   7.256
 9362SOL     OW40144   2.107   5.736   6.353
 9362SOL    HW140145   2.167   5.783   6.419
 9362SOL    HW240146   2.153   5.653   6.321
 9363SOL     OW40147   2.196   5.766   6.763
 9363SOL    HW140148   2.188   5.667   6.777
 9363SOL    HW240149   2.239   5.784   6.675
 9364SOL     OW40150   2.915   6.316   6.415
 9364SOL    HW140151   2.822   6.329   6.380
 9364SOL    HW240152   2.946   6.223   6.395
 9365SOL     OW40153   2.064   7.047   5.919
 9365SOL    HW140154   2.089   6.953   5.940
 9365SOL    HW240155   2.129   7.085   5.853
 9366SOL     OW40156   2.027   7.111   6.184
 9366SOL    HW140157   1.930   7.126   6.205
 9366SOL    HW240158   2.037   7.090   6.087
 9367SOL     OW40159   2.783   6.618   6.824
 9367SOL    HW140160   2.871   6.637   6.867
 9367SOL    HW240161   2.778   6.667   6.737
 9368SOL     OW40162   3.396   6.422   5.937
 9368SOL    HW140163   3.456   6.346   5.914
 9368SOL    HW240164   3.416   6.499   5.876
 9369SOL     OW40165   2.722   7.133   6.595
 9369SOL    HW140166   2.709   7.053   6.536
 9369SOL    HW240167   2.652   7.201   6.574
 9370SOL     OW40168   3.214   5.928   5.966
 9370SOL    HW140169   3.158   5.991   5.911
 9370SOL    HW240170   3.311   5.944   5.946
 9371SOL     OW40171   2.137   6.084   7.046
 9371SOL    HW140172   2.104   5.995   7.016
 9371SOL    HW240173   2.101   6.104   7.137
 9372SOL     OW40174   2.047   5.830   6.986
 9372SOL    HW140175   2.102   5.805   6.907
 9372SOL    HW240176   1.951   5.808   6.968
 9373SOL     OW40177   2.879   6.288   6.696
 9373SOL    HW140178   2.878   6.319   6.601
 9373SOL    HW240179   2.787   6.290   6.733
 9374SOL     OW40180   3.492   5.919   5.979
 9374SOL    HW140181   3.589   5.903   5.959
 9374SOL    HW240182   3.481   5.944   6.075
 9375SOL     OW40183   2.692   6.944   6.374
 9375SOL    HW140184   2.783   6.953   6.334
 9375SOL    HW240185   2.630   7.012   6.334
 9376SOL     OW40186   3.055   6.449   6.207
 9376SOL    HW140187   3.027   6.404   6.292
 9376SOL    HW240188   2.979   6.504   6.172
 9377SOL     OW40189   2.148   6.590   6.400
 9377SOL    HW140190   2.065   6.646   6.400
 9377SOL    HW240191   2.161   6.551   6.491
 9378SOL     OW40192   2.780   6.535   6.158
 9378SOL    HW140193   2.747   6.441   6.168
 9378SOL    HW240194   2.713   6.599   6.197
 9379SOL     OW40195   3.041   6.943   6.980
 9379SOL    HW140196   3.121   6.995   7.008
 9379SOL    HW240197   2.993   6.990   6.906
 9380SOL     OW40198   1.896   5.871   5.908
 9380SOL    HW140199   1.974   5.881   5.847
 9380SOL    HW240200   1.922   5.901   6.000
 9381SOL     OW40201   2.652   6.263   6.865
 9381SOL    HW140202   2.615   6.352   6.892
 9381SOL    HW240203   2.709   6.227   6.938
 9382SOL     OW40204   1.932   7.295   6.929
 9382SOL    HW140205   1.928   7.395   6.922
 9382SOL    HW240206   1.891   7.267   7.016
 9383SOL     OW40207   2.173   6.125   6.465
 9383SOL    HW140208   2.249   6.103   6.404
 9383SOL    HW240209   2.195   6.096   6.558
 9384SOL     OW40210   2.157   7.337   5.752
 9384SOL    HW140211   2.247   7.359   5.717
 9384SOL    HW240212   2.157   7.345   5.852
 9385SOL     OW40213   3.147   7.228   6.631
 9385SOL    HW140214   3.157   7.299   6.562
 9385SOL    HW240215   3.217   7.158   6.617
 9386SOL     OW40216   1.921   6.736   6.446
 9386SOL    HW140217   1.844   6.747   6.383
 9386SOL    HW240218   1.894   6.678   6.522
 9387SOL     OW40219   2.588   5.627   5.977
 9387SOL    HW140220   2.620   5.620   5.883
 9387SOL    HW240221   2.568   5.723   5.999
 9388SOL     OW40222   1.859   6.778   6.031
 9388SOL    HW140223   1.959   6.775   6.029
 9388SOL    HW240224   1.825   6.801   5.940
 9389SOL     OW40225   3.358   5.853   7.081
 9389SOL    HW140226   3.283   5.903   7.039
 9389SOL    HW240227   3.382   5.895   7.168
 9390SOL     OW40228   3.143   5.751   6.431
 9390SOL    HW140229   3.159   5.804   6.348
 9390SOL    HW240230   3.172   5.804   6.511
 9391SOL     OW40231   3.257   5.582   5.750
 9391SOL    HW140232   3.242   5.486   5.727
 9391SOL    HW240233   3.216   5.602   5.839
 9392SOL     OW40234   3.423   5.584   7.132
 9392SOL    HW140235   3.423   5.537   7.043
 9392SOL    HW240236   3.376   5.672   7.123
 9393SOL     OW40237   2.558   5.874   6.262
 9393SOL    HW140238   2.541   5.787   6.308
 9393SOL    HW240239   2.656   5.894   6.261
 9394SOL     OW40240   3.180   6.205   6.627
 9394SOL    HW140241   3.119   6.250   6.562
 9394SOL    HW240242   3.172   6.249   6.716
 9395SOL     OW40243   3.440   5.567   6.003
 9395SOL    HW140244   3.465   5.531   5.913
 9395SOL    HW240245   3.344   5.597   6.001
 9396SOL     OW40246   2.007   6.953   6.591
 9396SOL    HW140247   1.980   6.883   6.525
 9396SOL    HW240248   1.932   6.967   6.656
 9397SOL     OW40249   2.995   6.063   6.368
 9397SOL    HW140250   3.076   6.018   6.329
 9397SOL    HW240251   2.977   6.025   6.459
 9398SOL     OW40252   3.601   6.147   7.262
 9398SOL    HW140253   3.616   6.225   7.203
 9398SOL    HW240254   3.689   6.111   7.293
 9399SOL     OW40255   3.233   5.934   6.619
 9399SOL    HW140256   3.227   6.034   6.609
 9399SOL    HW240257   3.177   5.905   6.696
 9400SOL     OW40258   3.381   5.994   7.322
 9400SOL    HW140259   3.460   6.052   7.301
 9400SOL    HW240260   3.402   5.938   7.403
 9401SOL     OW40261   3.143   6.309   5.978
 9401SOL    HW140262   3.105   6.353   6.060
 9401SOL    HW240263   3.232   6.348   5.957
 9402SOL     OW40264   3.340   6.500   6.194
 9402SOL    HW140265   3.358   6.474   6.099
 9402SOL    HW240266   3.243   6.487   6.214
 9403SOL     OW40267   3.460   5.776   5.733
 9403SOL    HW140268   3.474   5.804   5.828
 9403SOL    HW240269   3.397   5.698   5.731
 9404SOL     OW40270   2.008   5.704   7.239
 9404SOL    HW140271   2.027   5.748   7.151
 9404SOL    HW240272   1.913   5.719   7.263
 9405SOL     OW40273   1.845   7.204   7.190
 9405SOL    HW140274   1.919   7.240   7.248
 9405SOL    HW240275   1.759   7.209   7.239
 9406SOL     OW40276   2.009   5.910   6.159
 9406SOL    HW140277   1.967   5.982   6.213
 9406SOL    HW240278   2.039   5.836   6.221
 9407SOL     OW40279   3.243   7.115   7.063
 9407SOL    HW140280   3.182   7.177   7.113
 9407SOL    HW240281   3.303   7.168   7.003
 9408SOL     OW40282   2.152   6.143   5.712
 9408SOL    HW140283   2.244   6.175   5.736
 9408SOL    HW240284   2.084   6.197   5.761
 9409SOL     OW40285   3.523   5.749   6.870
 9409SOL    HW140286   3.476   5.796   6.944
 9409SOL    HW240287   3.487   5.656   6.860
 9410SOL     OW40288   2.177   7.305   6.300
 9410SOL    HW140289   2.113   7.235   6.266
 9410SOL    HW240290   2.224   7.346   6.222
 9411SOL     OW40291   2.178   6.786   6.744
 9411SOL    HW140292   2.170   6.823   6.837
 9411SOL    HW240293   2.131   6.848   6.680
 9412SOL     OW40294   3.080   7.094   7.386
 9412SOL    HW140295   3.046   7.007   7.350
 9412SOL    HW240296   3.071   7.165   7.317
 9413SOL     OW40297   2.562   6.782   5.994
 9413SOL    HW140298   2.658   6.782   5.967
 9413SOL    HW240299   2.555   6.754   6.090
 9414SOL     OW40300   2.245   6.384   6.239
 9414SOL    HW140301   2.205   6.459   6.293
 9414SOL    HW240302   2.240   6.300   6.292
 9415SOL     OW40303   2.113   5.871   5.744
 9415SOL    HW140304   2.151   5.814   5.671
 9415SOL    HW240305   2.131   5.968   5.724
 9416SOL     OW40306   1.920   6.078   6.354
 9416SOL    HW140307   1.847   6.104   6.417
 9416SOL    HW240308   2.008   6.083   6.401
 9417SOL     OW40309   2.348   6.655   5.872
 9417SOL    HW140310   2.426   6.700   5.916
 9417SOL    HW240311   2.358   6.661   5.773
 9418SOL     OW40312   3.018   6.187   5.570
 9418SOL    HW140313   3.039   6.273   5.524
 9418SOL    HW240314   3.080   6.116   5.538
 9419SOL     OW40315   3.171   5.663   5.994
 9419SOL    HW140316   3.082   5.651   6.038
 9419SOL    HW240317   3.190   5.760   5.983
 9420SOL     OW40318   3.140   6.056   7.029
 9420SOL    HW140319   3.134   6.060   7.129
 9420SOL    HW240320   3.148   6.148   6.992
 9421SOL     OW40321   1.944   5.587   5.726
 9421SOL    HW140322   2.021   5.527   5.748
 9421SOL    HW240323   1.968   5.681   5.750
 9422SOL     OW40324   2.172   6.526   6.671
 9422SOL    HW140325   2.268   6.501   6.680
 9422SOL    HW240326   2.158   6.620   6.703
 9423SOL     OW40327   3.474   6.602   5.748
 9423SOL    HW140328   3.574   6.611   5.745
 9423SOL    HW240329   3.440   6.584   5.656
 9424SOL     OW40330   2.491   6.114   6.688
 9424SOL    HW140331   2.538   6.165   6.760
 9424SOL    HW240332   2.395   6.100   6.714
 9425SOL     OW40333   2.572   6.513   6.947
 9425SOL    HW140334   2.653   6.555   6.907
 9425SOL    HW240335   2.555   6.553   7.037
 9426SOL     OW40336   3.006   6.595   7.229
 9426SOL    HW140337   2.929   6.535   7.252
 9426SOL    HW240338   3.092   6.548   7.248
 9427SOL     OW40339   2.912   5.759   6.096
 9427SOL    HW140340   2.874   5.850   6.112
 9427SOL    HW240341   2.900   5.703   6.178
 9428SOL     OW40342   3.062   7.279   7.183
 9428SOL    HW140343   2.999   7.283   7.106
 9428SOL    HW240344   3.061   7.366   7.233
 9429SOL     OW40345   2.482   5.647   6.394
 9429SOL    HW140346   2.417   5.579   6.362
 9429SOL    HW240347   2.564   5.602   6.430
 9430SOL     OW40348   2.151   7.160   6.837
 9430SOL    HW140349   2.160   7.178   6.739
 9430SOL    HW240350   2.075   7.213   6.874
 9431SOL     OW40351   2.579   6.531   6.467
 9431SOL    HW140352   2.592   6.439   6.428
 9431SOL    HW240353   2.525   6.524   6.550
 9432SOL     OW40354   1.889   6.555   6.651
 9432SOL    HW140355   1.978   6.511   6.639
 9432SOL    HW240356   1.817   6.490   6.625
 9433SOL     OW40357   2.121   5.571   6.003
 9433SOL    HW140358   2.168   5.659   6.016
 9433SOL    HW240359   2.025   5.581   6.030
 9434SOL     OW40360   2.562   6.180   7.246
 9434SOL    HW140361   2.491   6.195   7.177
 9434SOL    HW240362   2.649   6.163   7.201
 9435SOL     OW40363   3.627   5.765   6.376
 9435SOL    HW140364   3.586   5.783   6.465
 9435SOL    HW240365   3.724   5.743   6.388
 9436SOL     OW40366   2.738   6.733   6.575
 9436SOL    HW140367   2.688   6.655   6.538
 9436SOL    HW240368   2.724   6.813   6.517
 9437SOL     OW40369   3.045   6.098   5.830
 9437SOL    HW140370   3.071   6.176   5.888
 9437SOL    HW240371   3.023   6.131   5.738
 9438SOL     OW40372   3.411   7.002   7.248
 9438SOL    HW140373   3.373   6.919   7.288
 9438SOL    HW240374   3.349   7.037   7.178
 9439SOL     OW40375   2.506   7.287   6.482
 9439SOL    HW140376   2.515   7.238   6.395
 9439SOL    HW240377   2.415   7.271   6.520
 9440SOL     OW40378   2.576   6.711   6.266
 9440SOL    HW140379   2.614   6.795   6.304
 9440SOL    HW240380   2.569   6.642   6.338
 9441SOL     OW40381   2.000   6.329   6.502
 9441SOL    HW140382   2.071   6.261   6.484
 9441SOL    HW240383   1.933   6.327   6.427
 9442SOL     OW40384   2.903   7.299   6.963
 9442SOL    HW140385   2.908   7.223   6.898
 9442SOL    HW240386   2.808   7.326   6.977
 9443SOL     OW40387   2.322   5.988   7.333
 9443SOL    HW140388   2.386   5.968   7.259
 9443SOL    HW240389   2.359   6.062   7.389
 9444SOL     OW40390   2.350   6.394   5.986
 9444SOL    HW140391   2.345   6.486   5.945
 9444SOL    HW240392   2.305   6.395   6.075
 9445SOL     OW40393   3.060   5.889   6.824
 9445SOL    HW140394   3.084   5.940   6.907
 9445SOL    HW240395   3.050   5.792   6.846
 9446SOL     OW40396   1.857   5.632   6.040
 9446SOL    HW140397   1.762   5.602   6.041
 9446SOL    HW240398   1.864   5.722   5.997
 9447SOL     OW40399   3.140   5.662   7.291
 9447SOL    HW140400   3.187   5.651   7.378
 9447SOL    HW240401   3.072   5.736   7.299
 9448SOL     OW40402   3.687   7.000   7.214
 9448SOL    HW140403   3.717   7.094   7.201
 9448SOL    HW240404   3.588   6.997   7.224
 9449SOL     OW40405   2.913   6.018   6.630
 9449SOL    HW140406   2.909   6.112   6.665
 9449SOL    HW240407   2.957   5.959   6.697
 9450SOL     OW40408   2.288   7.015   6.202
 9450SOL    HW140409   2.287   6.917   6.223
 9450SOL    HW240410   2.194   7.051   6.207
 9451SOL     OW40411   2.936   7.111   6.769
 9451SOL    HW140412   2.854   7.110   6.712
 9451SOL    HW240413   3.013   7.147   6.716
 9452SOL     OW40414   2.134   7.198   6.560
 9452SOL    HW140415   2.095   7.106   6.557
 9452SOL    HW240416   2.152   7.230   6.466
 9453SOL     OW40417   2.887   5.665   6.352
 9453SOL    HW140418   2.972   5.690   6.397
 9453SOL    HW240419   2.823   5.628   6.419
 9454SOL     OW40420   2.835   6.748   5.990
 9454SOL    HW140421   2.931   6.764   5.968
 9454SOL    HW240422   2.826   6.662   6.041
 9455SOL     OW40423   3.489   5.983   6.278
 9455SOL    HW140424   3.469   6.030   6.364
 9455SOL    HW240425   3.541   5.900   6.298
 9456SOL     OW40426   2.672   5.631   5.704
 9456SOL    HW140427   2.729   5.549   5.697
 9456SOL    HW240428   2.731   5.711   5.715
 9457SOL     OW40429   2.383   6.084   6.303
 9457SOL    HW140430   2.439   6.001   6.304
 9457SOL    HW240431   2.416   6.144   6.230
 9458SOL     OW40432   2.443   6.563   6.708
 9458SOL    HW140433   2.489   6.539   6.794
 9458SOL    HW240434   2.407   6.656   6.715
 9459SOL     OW40435   2.119   6.889   5.462
 9459SOL    HW140436   2.034   6.869   5.414
 9459SOL    HW240437   2.142   6.985   5.450
 9460SOL     OW40438   2.499   7.279   5.898
 9460SOL    HW140439   2.451   7.315   5.819
 9460SOL    HW240440   2.472   7.183   5.912
 9461SOL     OW40441   3.014   6.661   6.966
 9461SOL    HW140442   3.011   6.636   7.063
 9461SOL    HW240443   3.034   6.758   6.957
 9462SOL     OW40444   2.060   6.089   7.309
 9462SOL    HW140445   2.151   6.051   7.322
 9462SOL    HW240446   2.031   6.136   7.393
 9463SOL     OW40447   2.377   6.213   7.050
 9463SOL    HW140448   2.291   6.163   7.046
 9463SOL    HW240449   2.373   6.292   6.989
 9464SOL     OW40450   3.502   6.694   6.314
 9464SOL    HW140451   3.519   6.753   6.235
 9464SOL    HW240452   3.431   6.627   6.291
 9465SOL     OW40453   2.680   6.099   6.496
 9465SOL    HW140454   2.757   6.049   6.535
 9465SOL    HW240455   2.604   6.099   6.561
 9466SOL     OW40456   2.031   6.256   6.765
 9466SOL    HW140457   2.050   6.333   6.827
 9466SOL    HW240458   2.020   6.291   6.672
 9467SOL     OW40459   2.124   6.927   6.973
 9467SOL    HW140460   2.152   7.012   6.929
 9467SOL    HW240461   2.028   6.933   7.000
 9468SOL     OW40462   3.494   7.247   7.353
 9468SOL    HW140463   3.463   7.154   7.333
 9468SOL    HW240464   3.464   7.309   7.280
 9469SOL     OW40465   3.104   6.762   5.940
 9469SOL    HW140466   3.188   6.734   5.986
 9469SOL    HW240467   3.123   6.775   5.842
 9470SOL     OW40468   2.474   5.937   6.014
 9470SOL    HW140469   2.382   5.899   6.001
 9470SOL    HW240470   2.508   5.913   6.105
 9471SOL     OW40471   3.480   5.551   6.274
 9471SOL    HW140472   3.461   5.565   6.177
 9471SOL    HW240473   3.537   5.626   6.308
 9472SOL     OW40474   3.019   6.350   6.923
 9472SOL    HW140475   3.036   6.448   6.934
 9472SOL    HW240476   2.971   6.334   6.836
 9473SOL     OW40477   2.652   6.297   6.316
 9473SOL    HW140478   2.655   6.221   6.380
 9473SOL    HW240479   2.600   6.271   6.235
 9474SOL     OW40480   3.210   5.939   6.241
 9474SOL    HW140481   3.191   5.935   6.143
 9474SOL    HW240482   3.308   5.955   6.255
 9475SOL     OW40483   2.930   7.005   8.141
 9475SOL    HW140484   3.025   7.034   8.142
 9475SOL    HW240485   2.891   7.021   8.051
 9476SOL     OW40486   3.463   6.812   7.942
 9476SOL    HW140487   3.470   6.881   8.015
 9476SOL    HW240488   3.554   6.778   7.920
 9477SOL     OW40489   3.468   6.193   8.761
 9477SOL    HW140490   3.406   6.135   8.813
 9477SOL    HW240491   3.524   6.247   8.825
 9478SOL     OW40492   2.206   5.760   7.416
 9478SOL    HW140493   2.133   5.738   7.351
 9478SOL    HW240494   2.257   5.840   7.384
 9479SOL     OW40495   3.193   7.093   8.189
 9479SOL    HW140496   3.205   7.190   8.210
 9479SOL    HW240497   3.281   7.052   8.168
 9480SOL     OW40498   3.062   5.586   8.695
 9480SOL    HW140499   2.983   5.532   8.725
 9480SOL    HW240500   3.115   5.533   8.629
 9481SOL     OW40501   2.820   6.395   9.106
 9481SOL    HW140502   2.820   6.324   9.035
 9481SOL    HW240503   2.727   6.409   9.139
 9482SOL     OW40504   2.401   7.033   7.853
 9482SOL    HW140505   2.374   7.050   7.948
 9482SOL    HW240506   2.470   6.962   7.851
 9483SOL     OW40507   2.379   5.568   7.517
 9483SOL    HW140508   2.471   5.606   7.527
 9483SOL    HW240509   2.319   5.636   7.474
 9484SOL     OW40510   3.437   6.581   8.919
 9484SOL    HW140511   3.341   6.602   8.900
 9484SOL    HW240512   3.493   6.609   8.841
 9485SOL     OW40513   3.264   6.597   8.601
 9485SOL    HW140514   3.223   6.595   8.692
 9485SOL    HW240515   3.306   6.686   8.585
 9486SOL     OW40516   2.838   6.900   8.841
 9486SOL    HW140517   2.754   6.954   8.833
 9486SOL    HW240518   2.832   6.820   8.782
 9487SOL     OW40519   2.309   6.776   8.128
 9487SOL    HW140520   2.259   6.715   8.190
 9487SOL    HW240521   2.405   6.748   8.124
 9488SOL     OW40522   2.553   6.149   7.974
 9488SOL    HW140523   2.583   6.224   7.914
 9488SOL    HW240524   2.531   6.069   7.919
 9489SOL     OW40525   3.117   6.067   9.121
 9489SOL    HW140526   3.211   6.047   9.150
 9489SOL    HW240527   3.060   5.987   9.138
 9490SOL     OW40528   2.404   5.827   8.405
 9490SOL    HW140529   2.466   5.905   8.393
 9490SOL    HW240530   2.446   5.746   8.365
 9491SOL     OW40531   2.199   6.309   7.885
 9491SOL    HW140532   2.229   6.331   7.978
 9491SOL    HW240533   2.100   6.292   7.886
 9492SOL     OW40534   2.650   7.258   8.006
 9492SOL    HW140535   2.701   7.180   7.971
 9492SOL    HW240536   2.668   7.339   7.950
 9493SOL     OW40537   3.621   7.153   7.797
 9493SOL    HW140538   3.713   7.117   7.780
 9493SOL    HW240539   3.595   7.213   7.722
 9494SOL     OW40540   3.512   5.862   8.500
 9494SOL    HW140541   3.550   5.954   8.512
 9494SOL    HW240542   3.412   5.867   8.501
 9495SOL     OW40543   2.918   5.919   7.760
 9495SOL    HW140544   2.970   6.005   7.758
 9495SOL    HW240545   2.930   5.875   7.848
 9496SOL     OW40546   2.066   6.571   8.974
 9496SOL    HW140547   2.146   6.609   9.021
 9496SOL    HW240548   2.004   6.531   9.041
 9497SOL     OW40549   2.411   6.204   7.484
 9497SOL    HW140550   2.421   6.284   7.543
 9497SOL    HW240551   2.475   6.211   7.407
 9498SOL     OW40552   2.537   7.158   8.233
 9498SOL    HW140553   2.584   7.202   8.156
 9498SOL    HW240554   2.454   7.113   8.200
 9499SOL     OW40555   2.839   6.176   8.938
 9499SOL    HW140556   2.886   6.102   8.986
 9499SOL    HW240557   2.903   6.223   8.877
 9500SOL     OW40558   3.457   6.982   8.180
 9500SOL    HW140559   3.462   7.003   8.277
 9500SOL    HW240560   3.512   7.048   8.128
 9501SOL     OW40561   2.139   6.829   7.916
 9501SOL    HW140562   2.186   6.807   8.002
 9501SOL    HW240563   2.204   6.823   7.840
 9502SOL     OW40564   3.048   5.776   7.571
 9502SOL    HW140565   3.118   5.714   7.607
 9502SOL    HW240566   3.002   5.822   7.647
 9503SOL     OW40567   2.213   6.046   8.599
 9503SOL    HW140568   2.233   5.948   8.598
 9503SOL    HW240569   2.124   6.062   8.641
 9504SOL     OW40570   3.249   6.322   8.661
 9504SOL    HW140571   3.267   6.417   8.634
 9504SOL    HW240572   3.334   6.281   8.695
 9505SOL     OW40573   2.238   5.821   7.863
 9505SOL    HW140574   2.184   5.858   7.939
 9505SOL    HW240575   2.188   5.835   7.778
 9506SOL     OW40576   3.394   7.275   8.701
 9506SOL    HW140577   3.317   7.287   8.639
 9506SOL    HW240578   3.479   7.268   8.649
 9507SOL     OW40579   3.603   6.116   8.540
 9507SOL    HW140580   3.697   6.148   8.546
 9507SOL    HW240581   3.552   6.144   8.621
 9508SOL     OW40582   3.640   7.265   8.555
 9508SOL    HW140583   3.677   7.303   8.640
 9508SOL    HW240584   3.715   7.249   8.491
 9509SOL     OW40585   2.781   6.006   8.051
 9509SOL    HW140586   2.846   6.053   8.111
 9509SOL    HW240587   2.704   6.067   8.031
 9510SOL     OW40588   3.108   6.517   7.549
 9510SOL    HW140589   3.124   6.472   7.637
 9510SOL    HW240590   3.058   6.455   7.489
 9511SOL     OW40591   2.938   5.862   9.167
 9511SOL    HW140592   2.939   5.845   9.266
 9511SOL    HW240593   2.853   5.827   9.128
 9512SOL     OW40594   3.601   6.224   7.752
 9512SOL    HW140595   3.551   6.138   7.768
 9512SOL    HW240596   3.668   6.237   7.825
 9513SOL     OW40597   2.966   7.419   7.687
 9513SOL    HW140598   2.964   7.319   7.691
 9513SOL    HW240599   2.880   7.455   7.722
 9514SOL     OW40600   2.667   5.580   9.086
 9514SOL    HW140601   2.686   5.484   9.066
 9514SOL    HW240602   2.671   5.594   9.185
 9515SOL     OW40603   3.533   6.222   8.298
 9515SOL    HW140604   3.489   6.311   8.308
 9515SOL    HW240605   3.550   6.183   8.388
 9516SOL     OW40606   2.941   6.862   9.113
 9516SOL    HW140607   2.980   6.770   9.107
 9516SOL    HW240608   2.896   6.884   9.026
 9517SOL     OW40609   2.635   6.654   9.114
 9517SOL    HW140610   2.636   6.739   9.166
 9517SOL    HW240611   2.605   6.579   9.173
 9518SOL     OW40612   3.234   5.522   8.254
 9518SOL    HW140613   3.186   5.609   8.265
 9518SOL    HW240614   3.320   5.538   8.204
 9519SOL     OW40615   3.613   5.753   9.198
 9519SOL    HW140616   3.540   5.784   9.259
 9519SOL    HW240617   3.670   5.687   9.247
 9520SOL     OW40618   1.935   6.260   7.954
 9520SOL    HW140619   1.956   6.200   8.031
 9520SOL    HW240620   1.894   6.345   7.987
 9521SOL     OW40621   2.193   5.747   8.224
 9521SOL    HW140622   2.260   5.784   8.289
 9521SOL    HW240623   2.225   5.658   8.191
 9522SOL     OW40624   2.234   5.765   8.615
 9522SOL    HW140625   2.212   5.668   8.620
 9522SOL    HW240626   2.298   5.781   8.540
 9523SOL     OW40627   2.987   6.335   8.345
 9523SOL    HW140628   3.051   6.398   8.300
 9523SOL    HW240629   2.967   6.259   8.284
 9524SOL     OW40630   2.067   7.086   7.837
 9524SOL    HW140631   2.086   6.991   7.865
 9524SOL    HW240632   2.145   7.120   7.784
 9525SOL     OW40633   3.308   6.872   8.615
 9525SOL    HW140634   3.269   6.913   8.532
 9525SOL    HW240635   3.244   6.883   8.691
 9526SOL     OW40636   2.097   7.224   8.075
 9526SOL    HW140637   2.035   7.302   8.073
 9526SOL    HW240638   2.083   7.168   7.994
 9527SOL     OW40639   3.574   6.913   8.659
 9527SOL    HW140640   3.596   6.954   8.747
 9527SOL    HW240641   3.476   6.898   8.652
 9528SOL     OW40642   2.806   6.682   8.669
 9528SOL    HW140643   2.847   6.596   8.640
 9528SOL    HW240644   2.743   6.714   8.598
 9529SOL     OW40645   1.963   6.202   7.538
 9529SOL    HW140646   2.047   6.186   7.588
 9529SOL    HW240647   1.886   6.205   7.602
 9530SOL     OW40648   3.432   6.434   7.802
 9530SOL    HW140649   3.492   6.355   7.786
 9530SOL    HW240650   3.454   6.506   7.736
 9531SOL     OW40651   2.723   7.397   8.384
 9531SOL    HW140652   2.768   7.309   8.363
 9531SOL    HW240653   2.642   7.380   8.440
 9532SOL     OW40654   2.623   6.433   7.475
 9532SOL    HW140655   2.654   6.349   7.520
 9532SOL    HW240656   2.623   6.508   7.541
 9533SOL     OW40657   3.220   5.965   7.831
 9533SOL    HW140658   3.175   6.032   7.773
 9533SOL    HW240659   3.319   5.979   7.830
 9534SOL     OW40660   2.038   5.774   8.837
 9534SOL    HW140661   2.113   5.781   8.771
 9534SOL    HW240662   1.954   5.808   8.796
 9535SOL     OW40663   2.853   6.424   8.568
 9535SOL    HW140664   2.901   6.399   8.484
 9535SOL    HW240665   2.764   6.379   8.570
 9536SOL     OW40666   3.492   5.986   7.850
 9536SOL    HW140667   3.580   5.944   7.831
 9536SOL    HW240668   3.481   5.999   7.949
 9537SOL     OW40669   2.789   7.130   8.339
 9537SOL    HW140670   2.845   7.087   8.268
 9537SOL    HW240671   2.693   7.127   8.312
 9538SOL     OW40672   2.675   5.919   7.646
 9538SOL    HW140673   2.606   5.913   7.718
 9538SOL    HW240674   2.766   5.917   7.687
 9539SOL     OW40675   2.823   6.804   7.562
 9539SOL    HW140676   2.878   6.798   7.646
 9539SOL    HW240677   2.879   6.844   7.490
 9540SOL     OW40678   3.599   7.177   8.064
 9540SOL    HW140679   3.560   7.265   8.092
 9540SOL    HW240680   3.603   7.172   7.964
 9541SOL     OW40681   3.031   6.453   7.998
 9541SOL    HW140682   3.071   6.481   8.085
 9541SOL    HW240683   2.937   6.489   7.992
 9542SOL     OW40684   2.700   7.154   9.023
 9542SOL    HW140685   2.649   7.107   8.950
 9542SOL    HW240686   2.693   7.101   9.107
 9543SOL     OW40687   3.169   6.511   8.233
 9543SOL    HW140688   3.255   6.485   8.277
 9543SOL    HW240689   3.130   6.590   8.279
 9544SOL     OW40690   2.160   6.615   8.290
 9544SOL    HW140691   2.066   6.650   8.289
 9544SOL    HW240692   2.190   6.602   8.384
 9545SOL     OW40693   2.769   6.544   7.935
 9545SOL    HW140694   2.728   6.460   7.898
 9545SOL    HW240695   2.709   6.582   8.005
 9546SOL     OW40696   3.116   6.907   8.809
 9546SOL    HW140697   3.158   6.991   8.842
 9546SOL    HW240698   3.016   6.913   8.819
 9547SOL     OW40699   1.900   5.881   7.831
 9547SOL    HW140700   1.961   5.885   7.752
 9547SOL    HW240701   1.953   5.893   7.915
 9548SOL     OW40702   3.538   7.343   7.606
 9548SOL    HW140703   3.624   7.394   7.598
 9548SOL    HW240704   3.514   7.303   7.518
 9549SOL     OW40705   2.622   6.289   8.802
 9549SOL    HW140706   2.644   6.385   8.820
 9549SOL    HW240707   2.690   6.230   8.845
 9550SOL     OW40708   1.914   7.357   8.786
 9550SOL    HW140709   1.863   7.443   8.788
 9550SOL    HW240710   1.904   7.310   8.874
 9551SOL     OW40711   2.637   6.341   7.801
 9551SOL    HW140712   2.547   6.369   7.765
 9551SOL    HW240713   2.686   6.289   7.731
 9552SOL     OW40714   2.220   6.148   8.334
 9552SOL    HW140715   2.282   6.096   8.275
 9552SOL    HW240716   2.228   6.115   8.428
 9553SOL     OW40717   3.178   7.297   8.532
 9553SOL    HW140718   3.207   7.314   8.438
 9553SOL    HW240719   3.102   7.231   8.532
 9554SOL     OW40720   1.898   6.709   8.337
 9554SOL    HW140721   1.810   6.707   8.288
 9554SOL    HW240722   1.895   6.643   8.412
 9555SOL     OW40723   2.576   5.605   7.819
 9555SOL    HW140724   2.592   5.601   7.720
 9555SOL    HW240725   2.550   5.698   7.846
 9556SOL     OW40726   1.880   6.716   7.901
 9556SOL    HW140727   1.970   6.760   7.912
 9556SOL    HW240728   1.865   6.694   7.805
 9557SOL     OW40729   3.463   5.814   8.962
 9557SOL    HW140730   3.417   5.902   8.972
 9557SOL    HW240731   3.518   5.796   9.044
 9558SOL     OW40732   3.125   5.772   8.302
 9558SOL    HW140733   3.142   5.834   8.226
 9558SOL    HW240734   3.168   5.808   8.385
 9559SOL     OW40735   3.270   5.592   7.543
 9559SOL    HW140736   3.363   5.556   7.548
 9559SOL    HW240737   3.205   5.518   7.555
 9560SOL     OW40738   3.439   5.537   8.953
 9560SOL    HW140739   3.435   5.503   8.859
 9560SOL    HW240740   3.443   5.637   8.953
 9561SOL     OW40741   2.567   5.822   8.116
 9561SOL    HW140742   2.554   5.738   8.168
 9561SOL    HW240743   2.660   5.856   8.130
 9562SOL     OW40744   3.104   6.144   8.514
 9562SOL    HW140745   3.063   6.207   8.447
 9562SOL    HW240746   3.160   6.197   8.578
 9563SOL     OW40747   3.424   5.595   7.835
 9563SOL    HW140748   3.442   5.552   7.747
 9563SOL    HW240749   3.329   5.626   7.839
 9564SOL     OW40750   2.399   6.941   9.158
 9564SOL    HW140751   2.366   7.012   9.096
 9564SOL    HW240752   2.494   6.962   9.184
 9565SOL     OW40753   2.301   6.684   9.075
 9565SOL    HW140754   2.342   6.665   8.986
 9565SOL    HW240755   2.328   6.775   9.106
 9566SOL     OW40756   1.964   6.928   8.493
 9566SOL    HW140757   1.944   6.858   8.425
 9566SOL    HW240758   1.890   6.931   8.560
 9567SOL     OW40759   2.970   6.093   8.222
 9567SOL    HW140760   3.053   6.052   8.186
 9567SOL    HW240761   2.938   6.041   8.302
 9568SOL     OW40762   3.610   6.150   9.111
 9568SOL    HW140763   3.598   6.224   9.045
 9568SOL    HW240764   3.708   6.133   9.124
 9569SOL     OW40765   3.235   5.900   8.521
 9569SOL    HW140766   3.195   5.991   8.517
 9569SOL    HW240767   3.225   5.864   8.614
 9570SOL     OW40768   3.378   6.014   9.183
 9570SOL    HW140769   3.463   6.062   9.160
 9570SOL    HW240770   3.396   5.949   9.256
 9571SOL     OW40771   3.166   6.383   7.779
 9571SOL    HW140772   3.115   6.409   7.861
 9571SOL    HW240773   3.263   6.402   7.793
 9572SOL     OW40774   3.408   6.515   8.060
 9572SOL    HW140775   3.416   6.492   7.963
 9572SOL    HW240776   3.312   6.512   8.088
 9573SOL     OW40777   3.606   6.359   8.926
 9573SOL    HW140778   3.544   6.437   8.919
 9573SOL    HW240779   3.700   6.392   8.941
 9574SOL     OW40780   3.429   5.824   7.534
 9574SOL    HW140781   3.460   5.855   7.624
 9574SOL    HW240782   3.358   5.754   7.546
 9575SOL     OW40783   2.576   7.039   8.807
 9575SOL    HW140784   2.514   7.116   8.791
 9575SOL    HW240785   2.543   6.958   8.759
 9576SOL     OW40786   2.007   5.836   9.109
 9576SOL    HW140787   2.025   5.815   9.013
 9576SOL    HW240788   1.915   5.806   9.133
 9577SOL     OW40789   1.895   7.228   9.029
 9577SOL    HW140790   1.980   7.251   9.077
 9577SOL    HW240791   1.818   7.234   9.093
 9578SOL     OW40792   2.051   5.900   8.055
 9578SOL    HW140793   2.022   5.983   8.104
 9578SOL    HW240794   2.101   5.841   8.118
 9579SOL     OW40795   3.244   7.131   8.889
 9579SOL    HW140796   3.180   7.195   8.932
 9579SOL    HW240797   3.301   7.179   8.823
 9580SOL     OW40798   2.201   6.132   7.657
 9580SOL    HW140799   2.278   6.150   7.596
 9580SOL    HW240800   2.215   6.181   7.744
 9581SOL     OW40801   3.626   5.766   8.741
 9581SOL    HW140802   3.562   5.791   8.814
 9581SOL    HW240803   3.587   5.789   8.652
 9582SOL     OW40804   2.344   7.374   8.092
 9582SOL    HW140805   2.261   7.318   8.086
 9582SOL    HW240806   2.413   7.339   8.029
 9583SOL     OW40807   2.206   6.854   8.608
 9583SOL    HW140808   2.201   6.882   8.704
 9583SOL    HW240809   2.124   6.885   8.561
 9584SOL     OW40810   3.012   7.118   9.213
 9584SOL    HW140811   2.988   7.026   9.184
 9584SOL    HW240812   3.028   7.176   9.133
 9585SOL     OW40813   2.583   6.828   7.873
 9585SOL    HW140814   2.599   6.766   7.796
 9585SOL    HW240815   2.592   6.778   7.959
 9586SOL     OW40816   2.204   6.370   8.163
 9586SOL    HW140817   2.208   6.460   8.207
 9586SOL    HW240818   2.229   6.300   8.229
 9587SOL     OW40819   2.094   5.878   7.635
 9587SOL    HW140820   2.134   5.830   7.557
 9587SOL    HW240821   2.126   5.972   7.637
 9588SOL     OW40822   1.984   6.124   8.196
 9588SOL    HW140823   1.925   6.193   8.238
 9588SOL    HW240824   2.072   6.123   8.243
 9589SOL     OW40825   2.970   6.244   7.444
 9589SOL    HW140826   2.919   6.307   7.385
 9589SOL    HW240827   3.028   6.186   7.388
 9590SOL     OW40828   2.732   6.199   7.588
 9590SOL    HW140829   2.820   6.205   7.542
 9590SOL    HW240830   2.702   6.104   7.590
 9591SOL     OW40831   3.167   5.700   7.855
 9591SOL    HW140832   3.084   5.693   7.911
 9591SOL    HW240833   3.191   5.796   7.843
 9592SOL     OW40834   3.279   6.043   8.885
 9592SOL    HW140835   3.219   6.073   8.959
 9592SOL    HW240836   3.239   5.963   8.840
 9593SOL     OW40837   1.926   5.616   7.571
 9593SOL    HW140838   2.001   5.551   7.582
 9593SOL    HW240839   1.960   5.709   7.588
 9594SOL     OW40840   2.236   6.587   8.547
 9594SOL    HW140841   2.191   6.533   8.618
 9594SOL    HW240842   2.233   6.684   8.572
 9595SOL     OW40843   3.512   6.595   7.602
 9595SOL    HW140844   3.610   6.607   7.619
 9595SOL    HW240845   3.497   6.570   7.506
 9596SOL     OW40846   2.482   6.156   8.599
 9596SOL    HW140847   2.522   6.205   8.676
 9596SOL    HW240848   2.386   6.135   8.618
 9597SOL     OW40849   2.670   6.548   8.866
 9597SOL    HW140850   2.728   6.602   8.805
 9597SOL    HW240851   2.672   6.588   8.958
 9598SOL     OW40852   3.011   6.593   9.073
 9598SOL    HW140853   2.932   6.533   9.079
 9598SOL    HW240854   3.093   6.545   9.104
 9599SOL     OW40855   2.927   5.784   8.004
 9599SOL    HW140856   2.873   5.867   8.017
 9599SOL    HW240857   2.911   5.720   8.079
 9600SOL     OW40858   3.055   7.290   9.004
 9600SOL    HW140859   2.982   7.310   8.940
 9600SOL    HW240860   3.085   7.374   9.049
 9601SOL     OW40861   2.504   5.610   8.276
 9601SOL    HW140862   2.439   5.544   8.239
 9601SOL    HW240863   2.583   5.562   8.313
 9602SOL     OW40864   2.150   7.342   8.641
 9602SOL    HW140865   2.124   7.291   8.559
 9602SOL    HW240866   2.072   7.349   8.703
 9603SOL     OW40867   2.829   6.777   8.259
 9603SOL    HW140868   2.862   6.859   8.213
 9603SOL    HW240869   2.905   6.733   8.307
 9604SOL     OW40870   2.498   6.521   8.331
 9604SOL    HW140871   2.523   6.430   8.300
 9604SOL    HW240872   2.422   6.515   8.395
 9605SOL     OW40873   1.897   6.515   8.526
 9605SOL    HW140874   1.962   6.495   8.600
 9605SOL    HW240875   1.911   6.449   8.452
 9606SOL     OW40876   2.126   5.557   7.848
 9606SOL    HW140877   2.181   5.637   7.873
 9606SOL    HW240878   2.032   5.569   7.880
 9607SOL     OW40879   2.430   6.198   9.089
 9607SOL    HW140880   2.392   6.242   9.008
 9607SOL    HW240881   2.500   6.256   9.130
 9608SOL     OW40882   3.592   5.794   8.241
 9608SOL    HW140883   3.567   5.806   8.338
 9608SOL    HW240884   3.691   5.783   8.234
 9609SOL     OW40885   2.636   6.731   8.454
 9609SOL    HW140886   2.588   6.653   8.415
 9609SOL    HW240887   2.704   6.764   8.388
 9610SOL     OW40888   3.070   6.147   7.689
 9610SOL    HW140889   3.105   6.231   7.732
 9610SOL    HW240890   3.034   6.169   7.599
 9611SOL     OW40891   3.398   7.000   9.073
 9611SOL    HW140892   3.358   6.917   9.112
 9611SOL    HW240893   3.334   7.041   9.008
 9612SOL     OW40894   2.489   7.287   8.475
 9612SOL    HW140895   2.494   7.236   8.389
 9612SOL    HW240896   2.442   7.232   8.544
 9613SOL     OW40897   2.605   6.678   8.123
 9613SOL    HW140898   2.685   6.722   8.165
 9613SOL    HW240899   2.564   6.615   8.189
 9614SOL     OW40900   2.796   7.043   7.901
 9614SOL    HW140901   2.866   7.060   7.831
 9614SOL    HW240902   2.742   6.963   7.874
 9615SOL     OW40903   1.936   6.387   8.279
 9615SOL    HW140904   2.030   6.381   8.246
 9615SOL    HW240905   1.879   6.432   8.210
 9616SOL     OW40906   1.868   6.448   9.120
 9616SOL    HW140907   1.774   6.482   9.125
 9616SOL    HW240908   1.890   6.399   9.204
 9617SOL     OW40909   2.833   7.303   8.827
 9617SOL    HW140910   2.797   7.242   8.898
 9617SOL    HW240911   2.759   7.361   8.793
 9618SOL     OW40912   3.063   6.699   8.400
 9618SOL    HW140913   3.087   6.796   8.405
 9618SOL    HW240914   3.099   6.652   8.481
 9619SOL     OW40915   2.410   5.923   9.116
 9619SOL    HW140916   2.472   5.875   9.054
 9619SOL    HW240917   2.421   6.022   9.105
 9620SOL     OW40918   2.388   6.396   7.702
 9620SOL    HW140919   2.372   6.488   7.667
 9620SOL    HW240920   2.317   6.372   7.768
 9621SOL     OW40921   3.406   6.483   8.376
 9621SOL    HW140922   3.454   6.560   8.333
 9621SOL    HW240923   3.372   6.511   8.465
 9622SOL     OW40924   3.210   5.798   8.778
 9622SOL    HW140925   3.277   5.764   8.845
 9622SOL    HW240926   3.149   5.723   8.751
 9623SOL     OW40927   1.866   5.619   7.905
 9623SOL    HW140928   1.775   5.584   7.883
 9623SOL    HW240929   1.872   5.716   7.879
 9624SOL     OW40930   3.124   5.656   9.137
 9624SOL    HW140931   3.166   5.647   9.227
 9624SOL    HW240932   3.063   5.736   9.136
 9625SOL     OW40933   2.301   7.145   9.001
 9625SOL    HW140934   2.241   7.206   9.053
 9625SOL    HW240935   2.337   7.194   8.921
 9626SOL     OW40936   3.621   7.007   8.912
 9626SOL    HW140937   3.670   7.091   8.935
 9626SOL    HW240938   3.540   6.999   8.971
 9627SOL     OW40939   2.879   5.983   8.462
 9627SOL    HW140940   2.952   6.037   8.504
 9627SOL    HW240941   2.891   5.887   8.484
 9628SOL     OW40942   2.314   7.051   8.117
 9628SOL    HW140943   2.300   6.953   8.132
 9628SOL    HW240944   2.226   7.098   8.123
 9629SOL     OW40945   2.957   7.133   8.552
 9629SOL    HW140946   2.911   7.144   8.640
 9629SOL    HW240947   2.889   7.132   8.479
 9630SOL     OW40948   2.134   7.313   9.154
 9630SOL    HW140949   2.155   7.410   9.137
 9630SOL    HW240950   2.140   7.294   9.252
 9631SOL     OW40951   1.987   6.836   9.023
 9631SOL    HW140952   1.988   6.743   8.986
 9631SOL    HW240953   1.909   6.886   8.984
 9632SOL     OW40954   2.033   7.190   8.428
 9632SOL    HW140955   2.015   7.094   8.450
 9632SOL    HW240956   2.052   7.199   8.331
 9633SOL     OW40957   2.864   5.680   8.254
 9633SOL    HW140958   2.956   5.701   8.288
 9633SOL    HW240959   2.819   5.617   8.318
 9634SOL     OW40960   2.928   6.750   7.814
 9634SOL    HW140961   3.023   6.762   7.843
 9634SOL    HW240962   2.887   6.675   7.865
 9635SOL     OW40963   3.463   6.011   8.126
 9635SOL    HW140964   3.486   6.093   8.179
 9635SOL    HW240965   3.512   5.933   8.164
 9636SOL     OW40966   2.646   6.634   7.674
 9636SOL    HW140967   2.701   6.698   7.620
 9636SOL    HW240968   2.705   6.591   7.743
 9637SOL     OW40969   2.634   5.660   7.544
 9637SOL    HW140970   2.716   5.602   7.542
 9637SOL    HW240971   2.660   5.753   7.569
 9638SOL     OW40972   2.376   6.024   8.152
 9638SOL    HW140973   2.429   5.939   8.155
 9638SOL    HW240974   2.421   6.088   8.090
 9639SOL     OW40975   2.412   6.626   8.832
 9639SOL    HW140976   2.505   6.592   8.847
 9639SOL    HW240977   2.414   6.704   8.771
 9640SOL     OW40978   3.590   6.641   8.702
 9640SOL    HW140979   3.595   6.739   8.684
 9640SOL    HW240980   3.646   6.592   8.635
 9641SOL     OW40981   2.520   7.239   7.706
 9641SOL    HW140982   2.557   7.194   7.625
 9641SOL    HW240983   2.472   7.172   7.763
 9642SOL     OW40984   3.175   6.646   8.854
 9642SOL    HW140985   3.113   6.610   8.924
 9642SOL    HW240986   3.156   6.743   8.839
 9643SOL     OW40987   2.392   7.258   8.761
 9643SOL    HW140988   2.459   7.332   8.755
 9643SOL    HW240989   2.306   7.287   8.720
 9644SOL     OW40990   2.013   6.097   9.218
 9644SOL    HW140991   2.024   6.003   9.186
 9644SOL    HW240992   2.102   6.137   9.238
 9645SOL     OW40993   3.494   7.060   8.434
 9645SOL    HW140994   3.531   7.151   8.456
 9645SOL    HW240995   3.519   6.996   8.506
 9646SOL     OW40996   1.818   6.488   8.050
 9646SOL    HW140997   1.849   6.573   8.005
 9646SOL    HW240998   1.719   6.486   8.052
 9647SOL     OW40999   2.363   6.348   8.871
 9647SOL    HW141000   2.454   6.323   8.839
 9647SOL    HW241001   2.348   6.446   8.856
 9648SOL     OW41002   3.498   6.710   8.236
 9648SOL    HW141003   3.477   6.806   8.219
 9648SOL    HW241004   3.468   6.655   8.158
 9649SOL     OW41005   2.607   6.037   8.394
 9649SOL    HW141006   2.703   6.018   8.416
 9649SOL    HW241007   2.564   6.082   8.473
 9650SOL     OW41008   2.476   6.835   8.653
 9650SOL    HW141009   2.382   6.851   8.622
 9650SOL    HW241010   2.531   6.803   8.577
 9651SOL     OW41011   2.192   6.931   8.866
 9651SOL    HW141012   2.236   7.009   8.910
 9651SOL    HW241013   2.121   6.895   8.926
 9652SOL     OW41014   3.494   7.244   9.168
 9652SOL    HW141015   3.462   7.151   9.154
 9652SOL    HW241016   3.462   7.302   9.093
 9653SOL     OW41017   3.201   6.772   7.863
 9653SOL    HW141018   3.293   6.781   7.901
 9653SOL    HW241019   3.206   6.763   7.764
 9654SOL     OW41020   2.502   5.889   7.864
 9654SOL    HW141021   2.405   5.867   7.854
 9654SOL    HW241022   2.533   5.865   7.956
 9655SOL     OW41023   3.459   5.585   8.112
 9655SOL    HW141024   3.445   5.604   8.014
 9655SOL    HW241025   3.510   5.660   8.154
 9656SOL     OW41026   2.997   6.314   8.775
 9656SOL    HW141027   3.095   6.315   8.753
 9656SOL    HW241028   2.947   6.361   8.703
 9657SOL     OW41029   2.562   6.270   8.236
 9657SOL    HW141030   2.574   6.190   8.295
 9657SOL    HW241031   2.560   6.241   8.141
 9658SOL     OW41032   3.131   6.961   8.422
 9658SOL    HW141033   3.068   7.018   8.475
 9658SOL    HW241034   3.154   7.008   8.336
 9659SOL     OW41035   3.191   5.967   8.113
 9659SOL    HW141036   3.176   5.960   8.015
 9659SOL    HW241037   3.287   5.988   8.131
 9660SOL     OW41038   2.967   7.006   0.011
 9660SOL    HW141039   3.034   6.933   0.005
 9660SOL    HW241040   2.917   7.013   9.924
 9661SOL     OW41041   3.474   6.839   9.789
 9661SOL    HW141042   3.504   6.924   9.832
 9661SOL    HW241043   3.554   6.787   9.759
 9662SOL     OW41044   2.231   5.780   9.260
 9662SOL    HW141045   2.144   5.792   9.212
 9662SOL    HW241046   2.302   5.832   9.213
 9663SOL     OW41047   2.411   7.043   9.618
 9663SOL    HW141048   2.362   7.070   9.701
 9663SOL    HW241049   2.489   6.986   9.642
 9664SOL     OW41050   2.403   5.587   9.369
 9664SOL    HW141051   2.499   5.615   9.364
 9664SOL    HW241052   2.345   5.659   9.332
 9665SOL     OW41053   2.268   6.791   9.923
 9665SOL    HW141054   2.190   6.781   9.985
 9665SOL    HW241055   2.352   6.791   9.976
 9666SOL     OW41056   2.631   6.189   9.728
 9666SOL    HW141057   2.640   6.282   9.693
 9666SOL    HW241058   2.643   6.124   9.654
 9667SOL     OW41059   2.268   6.939   9.399
 9667SOL    HW141060   2.316   6.952   9.312
 9667SOL    HW241061   2.317   6.988   9.471
 9668SOL     OW41062   2.171   6.349   9.768
 9668SOL    HW141063   2.194   6.295   9.849
 9668SOL    HW241064   2.081   6.390   9.779
 9669SOL     OW41065   2.805   7.284   9.840
 9669SOL    HW141066   2.814   7.187   9.816
 9669SOL    HW241067   2.737   7.327   9.781
 9670SOL     OW41068   3.652   7.106   9.614
 9670SOL    HW141069   3.717   7.041   9.574
 9670SOL    HW241070   3.612   7.162   9.541
 9671SOL     OW41071   2.893   5.852   9.686
 9671SOL    HW141072   2.875   5.927   9.750
 9671SOL    HW241073   2.920   5.771   9.737
 9672SOL     OW41074   2.241   6.242   9.284
 9672SOL    HW141075   2.251   6.341   9.292
 9672SOL    HW241076   2.307   6.207   9.217
 9673SOL     OW41077   2.145   6.814   9.677
 9673SOL    HW141078   2.189   6.806   9.766
 9673SOL    HW241079   2.201   6.769   9.608
 9674SOL     OW41080   2.954   5.787   9.426
 9674SOL    HW141081   3.026   5.718   9.422
 9674SOL    HW241082   2.940   5.815   9.521
 9675SOL     OW41083   2.281   5.860   9.760
 9675SOL    HW141084   2.307   5.955   9.781
 9675SOL    HW241085   2.223   5.859   9.679
 9676SOL     OW41086   3.688   7.301   0.318
 9676SOL    HW141087   3.689   7.364   0.396
 9676SOL    HW241088   3.754   7.333   0.250
 9677SOL     OW41089   2.818   6.046   9.865
 9677SOL    HW141090   2.882   6.096   9.923
 9677SOL    HW241091   2.754   6.111   9.822
 9678SOL     OW41092   3.100   6.516   9.389
 9678SOL    HW141093   3.115   6.474   9.478
 9678SOL    HW241094   3.066   6.448   9.324
 9679SOL     OW41095   3.584   6.221   9.567
 9679SOL    HW141096   3.529   6.139   9.551
 9679SOL    HW241097   3.644   6.205   9.646
 9680SOL     OW41098   2.851   7.296   9.376
 9680SOL    HW141099   2.890   7.242   9.302
 9680SOL    HW241100   2.869   7.251   9.464
 9681SOL     OW41101   1.918   6.174   9.764
 9681SOL    HW141102   1.947   6.134   9.851
 9681SOL    HW241103   1.913   6.274   9.773
 9682SOL     OW41104   2.043   7.070   9.600
 9682SOL    HW141105   2.076   6.978   9.618
 9682SOL    HW241106   2.096   7.110   9.525
 9683SOL     OW41107   2.034   7.170   9.860
 9683SOL    HW141108   1.940   7.167   9.894
 9683SOL    HW241109   2.035   7.146   9.763
 9684SOL     OW41110   2.322   6.508   9.284
 9684SOL    HW141111   2.309   6.564   9.203
 9684SOL    HW241112   2.314   6.565   9.366
 9685SOL     OW41113   1.908   6.315   9.357
 9685SOL    HW141114   1.953   6.235   9.316
 9685SOL    HW241115   1.845   6.285   9.428
 9686SOL     OW41116   3.427   6.436   9.633
 9686SOL    HW141117   3.484   6.357   9.610
 9686SOL    HW241118   3.442   6.509   9.566
 9687SOL     OW41119   2.572   6.397   9.235
 9687SOL    HW141120   2.611   6.337   9.305
 9687SOL    HW241121   2.482   6.428   9.265
 9688SOL     OW41122   3.199   5.952   9.646
 9688SOL    HW141123   3.145   6.017   9.593
 9688SOL    HW241124   3.296   5.967   9.627
 9689SOL     OW41125   3.477   5.958   9.627
 9689SOL    HW141126   3.575   5.945   9.615
 9689SOL    HW241127   3.457   5.972   9.724
 9690SOL     OW41128   2.682   5.984   9.549
 9690SOL    HW141129   2.612   5.919   9.575
 9690SOL    HW241130   2.772   5.949   9.574
 9691SOL     OW41131   2.825   6.831   9.372
 9691SOL    HW141132   2.883   6.818   9.453
 9691SOL    HW241133   2.883   6.833   9.291
 9692SOL     OW41134   3.603   7.089   9.880
 9692SOL    HW141135   3.569   7.177   9.912
 9692SOL    HW241136   3.617   7.092   9.781
 9693SOL     OW41137   3.007   6.408   9.852
 9693SOL    HW141138   3.082   6.463   9.890
 9693SOL    HW241139   2.933   6.468   9.823
 9694SOL     OW41140   3.208   6.552   9.961
 9694SOL    HW141141   3.155   6.546   0.046
 9694SOL    HW241142   3.211   6.647   9.930
 9695SOL     OW41143   2.804   6.574   9.762
 9695SOL    HW141144   2.750   6.519   9.699
 9695SOL    HW241145   2.744   6.627   9.822
 9696SOL     OW41146   1.913   5.922   9.648
 9696SOL    HW141147   1.996   5.901   9.596
 9696SOL    HW241148   1.924   6.011   9.694
 9697SOL     OW41149   3.551   7.302   9.437
 9697SOL    HW141150   3.627   7.367   9.429
 9697SOL    HW241151   3.520   7.277   9.345
 9698SOL     OW41152   2.648   6.431   9.583
 9698SOL    HW141153   2.548   6.432   9.593
 9698SOL    HW241154   2.674   6.363   9.515
 9699SOL     OW41155   2.162   7.320   9.435
 9699SOL    HW141156   2.252   7.355   9.409
 9699SOL    HW241157   2.142   7.347   9.529
 9700SOL     OW41158   2.668   5.535   9.656
 9700SOL    HW141159   2.630   5.476   9.585
 9700SOL    HW241160   2.619   5.622   9.657
 9701SOL     OW41161   1.898   6.685   9.682
 9701SOL    HW141162   1.977   6.745   9.694
 9701SOL    HW241163   1.897   6.650   9.588
 9702SOL     OW41164   3.207   5.619   9.406
 9702SOL    HW141165   3.212   5.520   9.392
 9702SOL    HW241166   3.198   5.638   9.504
 9703SOL     OW41167   2.630   5.865   9.939
 9703SOL    HW141168   2.655   5.815   0.022
 9703SOL    HW241169   2.704   5.927   9.914
 9704SOL     OW41170   3.438   5.569   9.674
 9704SOL    HW141171   3.455   5.524   9.587
 9704SOL    HW241172   3.346   5.609   9.674
 9705SOL     OW41173   3.158   6.385   9.621
 9705SOL    HW141174   3.107   6.391   9.707
 9705SOL    HW241175   3.254   6.407   9.638
 9706SOL     OW41176   3.465   6.462   9.903
 9706SOL    HW141177   3.454   6.455   9.803
 9706SOL    HW241178   3.378   6.488   9.944
 9707SOL     OW41179   3.415   5.824   9.380
 9707SOL    HW141180   3.432   5.862   9.471
 9707SOL    HW241181   3.346   5.751   9.387
 9708SOL     OW41182   2.192   6.144   9.542
 9708SOL    HW141183   2.213   6.189   9.454
 9708SOL    HW241184   2.178   6.214   9.612
 9709SOL     OW41185   2.220   7.369   9.931
 9709SOL    HW141186   2.146   7.303   9.936
 9709SOL    HW241187   2.308   7.321   9.934
 9710SOL     OW41188   2.609   6.868   9.695
 9710SOL    HW141189   2.617   6.808   9.616
 9710SOL    HW241190   2.607   6.813   9.779
 9711SOL     OW41191   2.145   5.880   9.511
 9711SOL    HW141192   2.182   5.841   9.427
 9711SOL    HW241193   2.165   5.978   9.514
 9712SOL     OW41194   1.986   6.093   0.009
 9712SOL    HW141195   1.908   6.068   0.066
 9712SOL    HW241196   2.060   6.129   0.067
 9713SOL     OW41197   2.343   6.695   9.493
 9713SOL    HW141198   2.443   6.697   9.492
 9713SOL    HW241199   2.307   6.778   9.450
 9714SOL     OW41200   2.975   6.251   9.272
 9714SOL    HW141201   2.923   6.312   9.212
 9714SOL    HW241202   3.034   6.192   9.216
 9715SOL     OW41203   2.717   6.230   9.407
 9715SOL    HW141204   2.809   6.233   9.368
 9715SOL    HW241205   2.699   6.137   9.441
 9716SOL     OW41206   3.185   5.682   9.668
 9716SOL    HW141207   3.118   5.656   9.737
 9716SOL    HW241208   3.189   5.782   9.662
 9717SOL     OW41209   1.934   5.606   9.414
 9717SOL    HW141210   2.014   5.547   9.427
 9717SOL    HW241211   1.954   5.697   9.451
 9718SOL     OW41212   3.484   6.598   9.423
 9718SOL    HW141213   3.579   6.627   9.433
 9718SOL    HW241214   3.465   6.578   9.327
 9719SOL     OW41215   2.988   5.651   9.855
 9719SOL    HW141216   3.002   5.686   9.948
 9719SOL    HW241217   2.932   5.568   9.859
 9720SOL     OW41218   2.098   5.557   9.701
 9720SOL    HW141219   2.146   5.552   9.789
 9720SOL    HW241220   2.006   5.592   9.715
 9721SOL     OW41221   1.929   6.589   9.428
 9721SOL    HW141222   1.947   6.495   9.399
 9721SOL    HW241223   1.982   6.653   9.373
 9722SOL     OW41224   3.533   5.769   0.027
 9722SOL    HW141225   3.482   5.799   0.107
 9722SOL    HW241226   3.629   5.752   0.053
 9723SOL     OW41227   3.079   6.152   9.507
 9723SOL    HW141228   3.109   6.234   9.554
 9723SOL    HW241229   3.037   6.177   9.420
 9724SOL     OW41230   2.649   7.011   9.254
 9724SOL    HW141231   2.611   7.081   9.316
 9724SOL    HW241232   2.715   6.955   9.304
 9725SOL     OW41233   2.621   6.711   9.923
 9725SOL    HW141234   2.603   6.793   9.979
 9725SOL    HW241235   2.623   6.631   9.982
 9726SOL     OW41236   2.833   7.021   9.769
 9726SOL    HW141237   2.894   7.027   9.690
 9726SOL    HW241238   2.752   6.969   9.744
 9727SOL     OW41239   2.381   6.448   9.617
 9727SOL    HW141240   2.351   6.537   9.582
 9727SOL    HW241241   2.307   6.407   9.672
 9728SOL     OW41242   1.851   5.669   9.744
 9728SOL    HW141243   1.760   5.646   9.709
 9728SOL    HW241244   1.872   5.764   9.722
 9729SOL     OW41245   2.285   7.064   9.864
 9729SOL    HW141246   2.283   6.966   9.882
 9729SOL    HW241247   2.192   7.101   9.870
 9730SOL     OW41248   2.947   6.766   9.616
 9730SOL    HW141249   3.038   6.781   9.655
 9730SOL    HW241250   2.899   6.696   9.670
 9731SOL     OW41251   3.452   5.994   9.898
 9731SOL    HW141252   3.511   6.063   9.940
 9731SOL    HW241253   3.474   5.904   9.935
 9732SOL     OW41254   2.617   6.692   9.482
 9732SOL    HW141255   2.693   6.739   9.436
 9732SOL    HW241256   2.647   6.601   9.510
 9733SOL     OW41257   2.680   5.642   9.355
 9733SOL    HW141258   2.739   5.562   9.367
 9733SOL    HW241259   2.721   5.721   9.399
 9734SOL     OW41260   2.441   6.067   9.883
 9734SOL    HW141261   2.491   5.988   9.919
 9734SOL    HW241262   2.503   6.122   9.826
 9735SOL     OW41263   2.064   6.777   9.286
 9735SOL    HW141264   2.037   6.806   9.194
 9735SOL    HW241265   2.127   6.845   9.325
 9736SOL     OW41266   2.518   7.191   9.412
 9736SOL    HW141267   2.467   7.274   9.389
 9736SOL    HW241268   2.479   7.150   9.495
 9737SOL     OW41269   1.900   6.443   9.812
 9737SOL    HW141270   1.901   6.532   9.766
 9737SOL    HW241271   1.822   6.439   9.875
 9738SOL     OW41272   3.215   6.776   9.713
 9738SOL    HW141273   3.306   6.797   9.750
 9738SOL    HW241274   3.223   6.756   9.615
 9739SOL     OW41275   2.538   5.784   9.689
 9739SOL    HW141276   2.439   5.792   9.700
 9739SOL    HW241277   2.583   5.800   9.777
 9740SOL     OW41278   3.484   5.515   9.943
 9740SOL    HW141279   3.462   5.519   9.845
 9740SOL    HW241280   3.499   5.607   9.978
 9741SOL     OW41281   3.171   5.993   9.923
 9741SOL    HW141282   3.156   5.973   9.826
 9741SOL    HW241283   3.269   6.001   9.940
 9742SOL     OW41284   2.929   8.837   0.750
 9742SOL    HW141285   3.022   8.872   0.756
 9742SOL    HW241286   2.890   8.859   0.661
 9743SOL     OW41287   3.479   8.672   0.563
 9743SOL    HW141288   3.487   8.732   0.642
 9743SOL    HW241289   3.569   8.641   0.534
 9744SOL     OW41290   3.476   8.034   1.392
 9744SOL    HW141291   3.409   7.990   1.452
 9744SOL    HW241292   3.539   8.088   1.447
 9745SOL     OW41293   2.286   7.621   0.053
 9745SOL    HW141294   2.251   7.544   0.000
 9745SOL    HW241295   2.319   7.692   9.991
 9746SOL     OW41296   3.191   8.936   0.802
 9746SOL    HW141297   3.203   9.031   0.828
 9746SOL    HW241298   3.279   8.897   0.776
 9747SOL     OW41299   3.093   7.358   1.389
 9747SOL    HW141300   2.997   7.331   1.383
 9747SOL    HW241301   3.141   7.329   1.306
 9748SOL     OW41302   2.880   8.328   1.796
 9748SOL    HW141303   2.869   8.264   1.720
 9748SOL    HW241304   2.803   8.392   1.797
 9749SOL     OW41305   2.402   8.850   0.427
 9749SOL    HW141306   2.358   8.880   0.511
 9749SOL    HW241307   2.480   8.791   0.450
 9750SOL     OW41308   2.463   7.447   0.194
 9750SOL    HW141309   2.555   7.482   0.178
 9750SOL    HW241310   2.396   7.508   0.151
 9751SOL     OW41311   3.414   8.414   1.545
 9751SOL    HW141312   3.320   8.434   1.515
 9751SOL    HW241313   3.479   8.461   1.486
 9752SOL     OW41314   3.279   8.443   1.209
 9752SOL    HW141315   3.227   8.442   1.293
 9752SOL    HW241316   3.329   8.529   1.201
 9753SOL     OW41317   2.818   8.733   1.471
 9753SOL    HW141318   2.740   8.794   1.461
 9753SOL    HW241319   2.794   8.642   1.437
 9754SOL     OW41320   2.304   8.592   0.675
 9754SOL    HW141321   2.259   8.551   0.755
 9754SOL    HW241322   2.401   8.569   0.676
 9755SOL     OW41323   2.578   8.026   0.592
 9755SOL    HW141324   2.608   8.095   0.527
 9755SOL    HW241325   2.536   7.949   0.544
 9756SOL     OW41326   2.268   8.773   0.197
 9756SOL    HW141327   2.306   8.836   0.130
 9756SOL    HW241328   2.300   8.799   0.289
 9757SOL     OW41329   2.462   7.747   1.068
 9757SOL    HW141330   2.515   7.829   1.045
 9757SOL    HW241331   2.505   7.667   1.027
 9758SOL     OW41332   2.184   8.159   0.522
 9758SOL    HW141333   2.222   8.191   0.609
 9758SOL    HW241334   2.087   8.137   0.533
 9759SOL     OW41335   2.613   9.082   0.621
 9759SOL    HW141336   2.683   9.021   0.584
 9759SOL    HW241337   2.585   9.148   0.551
 9760SOL     OW41338   3.713   8.863   0.221
 9760SOL    HW141339   3.777   8.854   0.297
 9760SOL    HW241340   3.656   8.944   0.234
 9761SOL     OW41341   3.507   7.677   1.117
 9761SOL    HW141342   3.542   7.770   1.132
 9761SOL    HW241343   3.407   7.680   1.114
 9762SOL     OW41344   2.889   7.704   0.326
 9762SOL    HW141345   2.949   7.783   0.318
 9762SOL    HW241346   2.895   7.667   0.419
 9763SOL     OW41347   2.064   8.421   1.622
 9763SOL    HW141348   2.146   8.466   1.655
 9763SOL    HW241349   2.017   8.376   1.698
 9764SOL     OW41350   2.294   8.048   0.086
 9764SOL    HW141351   2.322   8.141   0.060
 9764SOL    HW241352   2.350   7.981   0.037
 9765SOL     OW41353   2.432   9.037   0.814
 9765SOL    HW141354   2.500   9.071   0.749
 9765SOL    HW241355   2.380   8.963   0.772
 9766SOL     OW41356   2.878   8.135   1.607
 9766SOL    HW141357   2.835   8.045   1.612
 9766SOL    HW241358   2.936   8.140   1.526
 9767SOL     OW41359   3.474   8.831   0.792
 9767SOL    HW141360   3.470   8.854   0.890
 9767SOL    HW241361   3.531   8.898   0.745
 9768SOL     OW41362   2.141   8.633   0.453
 9768SOL    HW141363   2.197   8.619   0.534
 9768SOL    HW241364   2.184   8.587   0.375
 9769SOL     OW41365   3.016   7.599   0.073
 9769SOL    HW141366   3.097   7.563   0.120
 9769SOL    HW241367   2.955   7.642   0.139
 9770SOL     OW41368   3.273   8.168   1.266
 9770SOL    HW141369   3.289   8.264   1.245
 9770SOL    HW241370   3.356   8.128   1.306
 9771SOL     OW41371   2.230   7.669   0.486
 9771SOL    HW141372   2.169   7.700   0.558
 9771SOL    HW241373   2.191   7.693   0.397
 9772SOL     OW41374   3.384   9.115   1.332
 9772SOL    HW141375   3.306   9.131   1.272
 9772SOL    HW241376   3.468   9.111   1.278
 9773SOL     OW41377   3.584   7.934   1.166
 9773SOL    HW141378   3.669   7.985   1.151
 9773SOL    HW241379   3.544   7.962   1.253
 9774SOL     OW41380   3.614   9.127   1.168
 9774SOL    HW141381   3.646   9.180   1.247
 9774SOL    HW241382   3.692   9.102   1.111
 9775SOL     OW41383   2.784   7.857   0.680
 9775SOL    HW141384   2.855   7.901   0.735
 9775SOL    HW241385   2.723   7.927   0.643
 9776SOL     OW41386   3.055   8.365   0.183
 9776SOL    HW141387   3.084   8.287   0.239
 9776SOL    HW241388   2.956   8.364   0.172
 9777SOL     OW41389   3.589   8.073   0.387
 9777SOL    HW141390   3.534   7.992   0.405
 9777SOL    HW241391   3.657   8.084   0.460
 9778SOL     OW41392   2.937   9.208   0.101
 9778SOL    HW141393   2.911   9.183   0.007
 9778SOL    HW241394   2.916   9.132   0.162
 9779SOL     OW41395   2.494   7.324   1.706
 9779SOL    HW141396   2.560   7.255   1.680
 9779SOL    HW241397   2.537   7.389   1.769
 9780SOL     OW41398   3.514   8.040   0.925
 9780SOL    HW141399   3.496   8.138   0.935
 9780SOL    HW241400   3.531   8.000   1.015
 9781SOL     OW41401   2.934   8.722   1.742
 9781SOL    HW141402   2.995   8.644   1.726
 9781SOL    HW241403   2.874   8.734   1.663
 9782SOL     OW41404   3.230   7.346   0.894
 9782SOL    HW141405   3.182   7.434   0.891
 9782SOL    HW241406   3.319   7.356   0.849
 9783SOL     OW41407   1.923   8.104   0.586
 9783SOL    HW141408   1.927   8.043   0.665
 9783SOL    HW241409   1.889   8.193   0.613
 9784SOL     OW41410   2.045   7.552   0.877
 9784SOL    HW141411   2.103   7.583   0.953
 9784SOL    HW241412   2.074   7.460   0.850
 9785SOL     OW41413   2.217   7.625   1.088
 9785SOL    HW141414   2.225   7.548   1.151
 9785SOL    HW241415   2.304   7.672   1.082
 9786SOL     OW41416   2.927   8.209   0.920
 9786SOL    HW141417   2.860   8.252   0.859
 9786SOL    HW241418   2.945   8.116   0.889
 9787SOL     OW41419   2.016   8.882   0.396
 9787SOL    HW141420   2.063   8.794   0.406
 9787SOL    HW241421   2.068   8.942   0.337
 9788SOL     OW41422   3.307   8.730   1.241
 9788SOL    HW141423   3.269   8.766   1.156
 9788SOL    HW241424   3.237   8.733   1.313
 9789SOL     OW41425   2.024   8.972   0.658
 9789SOL    HW141426   1.930   8.985   0.689
 9789SOL    HW241427   2.025   8.950   0.561
 9790SOL     OW41428   3.571   8.789   1.290
 9790SOL    HW141429   3.594   8.832   1.377
 9790SOL    HW241430   3.472   8.772   1.287
 9791SOL     OW41431   2.350   8.315   0.029
 9791SOL    HW141432   2.301   8.344   9.947
 9791SOL    HW241433   2.337   8.383   0.101
 9792SOL     OW41434   2.759   8.488   1.319
 9792SOL    HW141435   2.818   8.413   1.292
 9792SOL    HW241436   2.723   8.533   1.237
 9793SOL     OW41437   1.913   8.154   0.215
 9793SOL    HW141438   1.996   8.106   0.242
 9793SOL    HW241439   1.839   8.132   0.278
 9794SOL     OW41440   3.394   8.270   0.392
 9794SOL    HW141441   3.465   8.200   0.392
 9794SOL    HW241442   3.408   8.331   0.314
 9795SOL     OW41443   2.777   9.127   1.068
 9795SOL    HW141444   2.760   9.052   1.004
 9795SOL    HW241445   2.690   9.158   1.107
 9796SOL     OW41446   2.620   8.313   0.088
 9796SOL    HW141447   2.671   8.229   0.106
 9796SOL    HW241448   2.525   8.290   0.067
 9797SOL     OW41449   3.197   7.801   0.461
 9797SOL    HW141450   3.147   7.850   0.390
 9797SOL    HW241451   3.293   7.828   0.460
 9798SOL     OW41452   2.852   8.238   1.193
 9798SOL    HW141453   2.887   8.235   1.100
 9798SOL    HW241454   2.764   8.192   1.198
 9799SOL     OW41455   3.469   7.834   0.482
 9799SOL    HW141456   3.560   7.802   0.458
 9799SOL    HW241457   3.459   7.835   0.581
 9800SOL     OW41458   2.717   8.929   0.899
 9800SOL    HW141459   2.795   8.895   0.845
 9800SOL    HW241460   2.640   8.948   0.837
 9801SOL     OW41461   2.663   7.866   0.304
 9801SOL    HW141462   2.589   7.829   0.359
 9801SOL    HW241463   2.742   7.805   0.307
 9802SOL     OW41464   2.830   8.694   0.216
 9802SOL    HW141465   2.879   8.669   0.299
 9802SOL    HW241466   2.888   8.752   0.159
 9803SOL     OW41467   3.620   9.031   0.674
 9803SOL    HW141468   3.576   9.107   0.722
 9803SOL    HW241469   3.613   9.045   0.575
 9804SOL     OW41470   3.022   8.269   0.584
 9804SOL    HW141471   3.075   8.307   0.660
 9804SOL    HW241472   2.934   8.316   0.577
 9805SOL     OW41473   2.690   9.021   1.652
 9805SOL    HW141474   2.649   8.972   1.575
 9805SOL    HW241475   2.684   8.964   1.735
 9806SOL     OW41476   3.149   8.349   0.814
 9806SOL    HW141477   3.087   8.285   0.859
 9806SOL    HW241478   3.147   8.437   0.862
 9807SOL     OW41479   2.186   8.479   0.894
 9807SOL    HW141480   2.088   8.501   0.900
 9807SOL    HW241481   2.225   8.472   0.986
 9808SOL     OW41482   2.782   8.394   0.562
 9808SOL    HW141483   2.734   8.331   0.501
 9808SOL    HW241484   2.716   8.434   0.626
 9809SOL     OW41485   3.092   8.746   1.417
 9809SOL    HW141486   3.134   8.827   1.457
 9809SOL    HW241487   2.994   8.745   1.439
 9810SOL     OW41488   1.906   7.726   0.426
 9810SOL    HW141489   1.973   7.739   0.353
 9810SOL    HW241490   1.951   7.737   0.515
 9811SOL     OW41491   3.418   9.160   0.083
 9811SOL    HW141492   3.487   9.142   0.153
 9811SOL    HW241493   3.445   9.117   9.997
 9812SOL     OW41494   1.944   9.242   1.413
 9812SOL    HW141495   1.899   9.331   1.411
 9812SOL    HW241496   1.926   9.196   1.500
 9813SOL     OW41497   2.650   8.211   0.404
 9813SOL    HW141498   2.556   8.237   0.385
 9813SOL    HW241499   2.691   8.170   0.322
 9814SOL     OW41500   2.125   7.878   0.991
 9814SOL    HW141501   2.197   7.891   0.922
 9814SOL    HW241502   2.141   7.793   1.040
 9815SOL     OW41503   2.145   9.079   0.258
 9815SOL    HW141504   2.194   9.109   0.176
 9815SOL    HW241505   2.177   9.131   0.337
 9816SOL     OW41506   3.173   9.143   1.161
 9816SOL    HW141507   3.200   9.158   1.066
 9816SOL    HW241508   3.103   9.072   1.165
 9817SOL     OW41509   1.918   8.540   0.959
 9817SOL    HW141510   1.830   8.539   0.911
 9817SOL    HW241511   1.919   8.468   1.028
 9818SOL     OW41512   2.554   7.475   0.456
 9818SOL    HW141513   2.515   7.455   0.366
 9818SOL    HW241514   2.545   7.573   0.475
 9819SOL     OW41515   1.874   8.551   0.471
 9819SOL    HW141516   1.964   8.593   0.480
 9819SOL    HW241517   1.866   8.506   0.382
 9820SOL     OW41518   3.384   7.696   1.549
 9820SOL    HW141519   3.345   7.788   1.548
 9820SOL    HW241520   3.408   7.672   1.644
 9821SOL     OW41521   3.108   7.595   0.910
 9821SOL    HW141522   3.125   7.660   0.836
 9821SOL    HW241523   3.151   7.628   0.994
 9822SOL     OW41524   3.217   7.505   0.232
 9822SOL    HW141525   3.281   7.429   0.222
 9822SOL    HW241526   3.175   7.501   0.323
 9823SOL     OW41527   2.545   7.741   0.757
 9823SOL    HW141528   2.547   7.661   0.817
 9823SOL    HW241529   2.637   7.779   0.749
 9824SOL     OW41530   3.167   7.979   1.100
 9824SOL    HW141531   3.186   8.010   1.007
 9824SOL    HW241532   3.203   8.045   1.165
 9825SOL     OW41533   3.400   7.436   0.489
 9825SOL    HW141534   3.408   7.393   0.400
 9825SOL    HW241535   3.307   7.471   0.502
 9826SOL     OW41536   2.389   8.795   1.796
 9826SOL    HW141537   2.356   8.864   1.732
 9826SOL    HW241538   2.486   8.808   1.813
 9827SOL     OW41539   2.298   8.558   1.680
 9827SOL    HW141540   2.330   8.570   1.585
 9827SOL    HW241541   2.322   8.639   1.733
 9828SOL     OW41542   1.970   8.772   1.100
 9828SOL    HW141543   1.953   8.695   1.038
 9828SOL    HW241544   1.897   8.776   1.169
 9829SOL     OW41545   2.981   7.952   0.844
 9829SOL    HW141546   3.057   7.901   0.804
 9829SOL    HW241547   2.954   7.911   0.930
 9830SOL     OW41548   3.670   8.005   1.735
 9830SOL    HW141549   3.647   8.077   1.669
 9830SOL    HW241550   3.760   7.968   1.714
 9831SOL     OW41551   3.229   7.712   1.127
 9831SOL    HW141552   3.211   7.810   1.123
 9831SOL    HW241553   3.208   7.677   1.219
 9832SOL     OW41554   3.629   7.939   1.998
 9832SOL    HW141555   3.642   7.961   1.902
 9832SOL    HW241556   3.593   7.846   2.007
 9833SOL     OW41557   3.139   8.173   0.363
 9833SOL    HW141558   3.090   8.201   0.446
 9833SOL    HW241559   3.234   8.201   0.369
 9834SOL     OW41560   3.391   8.360   0.662
 9834SOL    HW141561   3.378   8.338   0.565
 9834SOL    HW241562   3.304   8.349   0.711
 9835SOL     OW41563   3.607   8.213   1.551
 9835SOL    HW141564   3.534   8.281   1.544
 9835SOL    HW241565   3.696   8.258   1.545
 9836SOL     OW41566   3.429   7.684   0.235
 9836SOL    HW141567   3.429   7.739   0.319
 9836SOL    HW241568   3.343   7.633   0.229
 9837SOL     OW41569   2.589   8.908   1.424
 9837SOL    HW141570   2.529   8.988   1.421
 9837SOL    HW241571   2.561   8.842   1.355
 9838SOL     OW41572   1.894   9.090   1.643
 9838SOL    HW141573   1.980   9.101   1.693
 9838SOL    HW241574   1.817   9.095   1.707
 9839SOL     OW41575   2.032   7.733   0.667
 9839SOL    HW141576   1.995   7.815   0.709
 9839SOL    HW241577   2.042   7.661   0.736
 9840SOL     OW41578   3.231   8.962   1.507
 9840SOL    HW141579   3.168   9.027   1.550
 9840SOL    HW241580   3.291   9.010   1.444
 9841SOL     OW41581   2.134   8.010   0.292
 9841SOL    HW141582   2.197   8.028   0.217
 9841SOL    HW241583   2.167   8.056   0.375
 9842SOL     OW41584   3.583   7.588   1.373
 9842SOL    HW141585   3.513   7.626   1.433
 9842SOL    HW241586   3.561   7.612   1.278
 9843SOL     OW41587   2.171   9.144   0.824
 9843SOL    HW141588   2.121   9.093   0.755
 9843SOL    HW241589   2.268   9.118   0.821
 9844SOL     OW41590   2.216   8.710   1.214
 9844SOL    HW141591   2.209   8.736   1.311
 9844SOL    HW241592   2.133   8.739   1.166
 9845SOL     OW41593   3.011   8.975   1.836
 9845SOL    HW141594   2.979   8.884   1.809
 9845SOL    HW241595   3.027   9.030   1.754
 9846SOL     OW41596   2.603   8.674   0.501
 9846SOL    HW141597   2.615   8.609   0.426
 9846SOL    HW241598   2.613   8.627   0.589
 9847SOL     OW41599   2.261   8.239   0.773
 9847SOL    HW141600   2.246   8.329   0.815
 9847SOL    HW241601   2.347   8.201   0.807
 9848SOL     OW41602   2.123   7.741   0.243
 9848SOL    HW141603   2.191   7.707   0.178
 9848SOL    HW241604   2.130   7.841   0.250
 9849SOL     OW41605   1.925   7.942   0.808
 9849SOL    HW141606   1.845   7.986   0.849
 9849SOL    HW241607   1.992   7.923   0.880
 9850SOL     OW41608   2.358   8.517   0.226
 9850SOL    HW141609   2.456   8.521   0.248
 9850SOL    HW241610   2.325   8.609   0.208
 9851SOL     OW41611   2.995   8.014   0.005
 9851SOL    HW141612   2.988   8.100   9.955
 9851SOL    HW241613   3.074   7.962   9.973
 9852SOL     OW41614   2.755   8.087   0.169
 9852SOL    HW141615   2.839   8.062   0.120
 9852SOL    HW241616   2.715   8.005   0.211
 9853SOL     OW41617   3.142   7.538   0.496
 9853SOL    HW141618   3.053   7.532   0.541
 9853SOL    HW241619   3.166   7.634   0.484
 9854SOL     OW41620   3.264   7.947   1.545
 9854SOL    HW141621   3.273   8.019   1.614
 9854SOL    HW241622   3.176   7.957   1.498
 9855SOL     OW41623   1.955   7.580   0.086
 9855SOL    HW141624   1.955   7.487   0.122
 9855SOL    HW241625   2.020   7.636   0.137
 9856SOL     OW41626   2.290   8.454   1.150
 9856SOL    HW141627   2.245   8.395   1.218
 9856SOL    HW241628   2.270   8.550   1.171
 9857SOL     OW41629   3.470   8.403   0.165
 9857SOL    HW141630   3.559   8.441   0.188
 9857SOL    HW241631   3.473   8.365   0.072
 9858SOL     OW41632   2.561   8.086   1.243
 9858SOL    HW141633   2.566   8.169   1.298
 9858SOL    HW241634   2.485   8.029   1.275
 9859SOL     OW41635   3.083   8.489   1.713
 9859SOL    HW141636   3.019   8.426   1.757
 9859SOL    HW241637   3.156   8.513   1.777
 9860SOL     OW41638   2.888   7.614   0.600
 9860SOL    HW141639   2.853   7.703   0.628
 9860SOL    HW241640   2.852   7.543   0.661
 9861SOL     OW41641   3.056   9.135   1.619
 9861SOL    HW141642   2.978   9.162   1.563
 9861SOL    HW241643   3.100   9.217   1.655
 9862SOL     OW41644   2.573   7.537   0.934
 9862SOL    HW141645   2.526   7.453   0.961
 9862SOL    HW241646   2.671   7.518   0.922
 9863SOL     OW41647   2.178   9.155   1.278
 9863SOL    HW141648   2.139   9.112   1.197
 9863SOL    HW241649   2.105   9.194   1.333
 9864SOL     OW41650   2.852   8.606   0.877
 9864SOL    HW141651   2.879   8.690   0.829
 9864SOL    HW241652   2.932   8.567   0.922
 9865SOL     OW41653   2.499   8.392   0.959
 9865SOL    HW141654   2.508   8.298   0.928
 9865SOL    HW241655   2.427   8.398   1.029
 9866SOL     OW41656   1.939   8.361   1.170
 9866SOL    HW141657   2.014   8.373   1.235
 9866SOL    HW241658   1.936   8.266   1.139
 9867SOL     OW41659   2.150   7.399   0.485
 9867SOL    HW141660   2.198   7.487   0.492
 9867SOL    HW241661   2.052   7.413   0.497
 9868SOL     OW41662   1.901   8.433   0.220
 9868SOL    HW141663   1.918   8.335   0.209
 9868SOL    HW241664   1.967   8.484   0.164
 9869SOL     OW41665   3.602   7.603   0.861
 9869SOL    HW141666   3.577   7.615   0.958
 9869SOL    HW241667   3.700   7.586   0.855
 9870SOL     OW41668   2.659   8.583   1.079
 9870SOL    HW141669   2.603   8.512   1.037
 9870SOL    HW241670   2.730   8.611   1.014
 9871SOL     OW41671   3.048   7.932   0.272
 9871SOL    HW141672   3.075   8.020   0.310
 9871SOL    HW241673   3.033   7.942   0.173
 9872SOL     OW41674   3.396   8.851   1.697
 9872SOL    HW141675   3.361   8.767   1.739
 9872SOL    HW241676   3.330   8.885   1.630
 9873SOL     OW41677   2.148   8.334   1.358
 9873SOL    HW141678   2.115   8.240   1.366
 9873SOL    HW241679   2.133   8.382   1.445
 9874SOL     OW41680   2.600   8.754   0.074
 9874SOL    HW141681   2.554   8.839   0.100
 9874SOL    HW241682   2.685   8.745   0.126
 9875SOL     OW41683   2.489   9.146   1.062
 9875SOL    HW141684   2.466   9.092   0.981
 9875SOL    HW241685   2.415   9.140   1.129
 9876SOL     OW41686   2.619   8.528   0.745
 9876SOL    HW141687   2.702   8.565   0.786
 9876SOL    HW241688   2.567   8.479   0.815
 9877SOL     OW41689   2.788   8.892   0.520
 9877SOL    HW141690   2.844   8.916   0.441
 9877SOL    HW241691   2.732   8.812   0.498
 9878SOL     OW41692   1.987   8.242   0.861
 9878SOL    HW141693   2.078   8.233   0.822
 9878SOL    HW241694   1.928   8.291   0.797
 9879SOL     OW41695   1.898   8.295   1.800
 9879SOL    HW141696   1.799   8.300   1.787
 9879SOL    HW241697   1.918   8.265   1.893
 9880SOL     OW41698   2.824   9.186   1.472
 9880SOL    HW141699   2.783   9.121   1.536
 9880SOL    HW241700   2.752   9.246   1.436
 9881SOL     OW41701   3.097   8.543   1.006
 9881SOL    HW141702   3.110   8.641   1.016
 9881SOL    HW241703   3.145   8.495   1.079
 9882SOL     OW41704   2.389   8.277   0.373
 9882SOL    HW141705   2.359   8.360   0.327
 9882SOL    HW241706   2.312   8.236   0.422
 9883SOL     OW41707   3.461   8.315   1.008
 9883SOL    HW141708   3.479   8.389   0.943
 9883SOL    HW241709   3.389   8.344   1.072
 9884SOL     OW41710   3.180   7.620   1.377
 9884SOL    HW141711   3.252   7.639   1.444
 9884SOL    HW241712   3.142   7.529   1.393
 9885SOL     OW41713   1.873   7.457   0.459
 9885SOL    HW141714   1.778   7.432   0.473
 9885SOL    HW241715   1.880   7.556   0.447
 9886SOL     OW41716   2.298   8.989   1.624
 9886SOL    HW141717   2.235   9.045   1.678
 9886SOL    HW241718   2.342   9.045   1.554
 9887SOL     OW41719   3.627   8.880   1.551
 9887SOL    HW141720   3.668   8.969   1.572
 9887SOL    HW241721   3.545   8.867   1.607
 9888SOL     OW41722   2.907   7.873   1.095
 9888SOL    HW141723   2.993   7.918   1.120
 9888SOL    HW241724   2.897   7.789   1.148
 9889SOL     OW41725   2.276   8.864   0.678
 9889SOL    HW141726   2.280   8.764   0.682
 9889SOL    HW241727   2.180   8.893   0.677
 9890SOL     OW41728   2.965   8.968   1.186
 9890SOL    HW141729   2.927   8.921   1.265
 9890SOL    HW241730   2.895   9.028   1.146
 9891SOL     OW41731   2.127   9.135   1.791
 9891SOL    HW141732   2.150   9.232   1.793
 9891SOL    HW241733   2.125   9.099   1.884
 9892SOL     OW41734   1.988   8.694   1.651
 9892SOL    HW141735   1.985   8.596   1.630
 9892SOL    HW241736   1.909   8.740   1.611
 9893SOL     OW41737   2.051   9.040   1.058
 9893SOL    HW141738   2.033   8.942   1.054
 9893SOL    HW241739   2.090   9.071   0.971
 9894SOL     OW41740   2.845   7.493   0.914
 9894SOL    HW141741   2.939   7.527   0.912
 9894SOL    HW241742   2.837   7.418   0.980
 9895SOL     OW41743   2.939   8.602   0.449
 9895SOL    HW141744   3.027   8.614   0.495
 9895SOL    HW241745   2.888   8.528   0.492
 9896SOL     OW41746   3.456   7.823   0.759
 9896SOL    HW141747   3.478   7.904   0.813
 9896SOL    HW241748   3.510   7.745   0.792
 9897SOL     OW41749   2.630   8.515   0.276
 9897SOL    HW141750   2.703   8.579   0.251
 9897SOL    HW241751   2.637   8.432   0.220
 9898SOL     OW41752   2.717   7.543   0.174
 9898SOL    HW141753   2.756   7.453   0.156
 9898SOL    HW241754   2.775   7.592   0.239
 9899SOL     OW41755   2.315   7.895   0.796
 9899SOL    HW141756   2.394   7.835   0.792
 9899SOL    HW241757   2.323   7.966   0.725
 9900SOL     OW41758   2.421   8.554   1.431
 9900SOL    HW141759   2.403   8.477   1.370
 9900SOL    HW241760   2.445   8.635   1.376
 9901SOL     OW41761   3.582   8.524   1.368
 9901SOL    HW141762   3.588   8.622   1.346
 9901SOL    HW241763   3.624   8.471   1.294
 9902SOL     OW41764   2.067   8.619   0.083
 9902SOL    HW141765   1.980   8.660   0.056
 9902SOL    HW241766   2.122   8.687   0.132
 9903SOL     OW41767   2.474   8.972   0.181
 9903SOL    HW141768   2.483   9.071   0.169
 9903SOL    HW241769   2.458   8.951   0.277
 9904SOL     OW41770   3.161   8.485   1.453
 9904SOL    HW141771   3.124   8.463   1.543
 9904SOL    HW241772   3.136   8.579   1.428
 9905SOL     OW41773   2.413   9.123   1.411
 9905SOL    HW141774   2.468   9.206   1.400
 9905SOL    HW241775   2.327   9.134   1.362
 9906SOL     OW41776   3.485   8.914   1.048
 9906SOL    HW141777   3.512   9.007   1.071
 9906SOL    HW241778   3.507   8.853   1.124
 9907SOL     OW41779   1.830   8.349   0.656
 9907SOL    HW141780   1.854   8.424   0.596
 9907SOL    HW241781   1.730   8.344   0.665
 9908SOL     OW41782   3.492   8.545   0.845
 9908SOL    HW141783   3.473   8.642   0.833
 9908SOL    HW241784   3.454   8.493   0.768
 9909SOL     OW41785   2.647   7.963   1.022
 9909SOL    HW141786   2.739   7.928   1.036
 9909SOL    HW241787   2.616   8.010   1.105
 9910SOL     OW41788   2.494   8.737   1.239
 9910SOL    HW141789   2.401   8.744   1.204
 9910SOL    HW241790   2.552   8.694   1.170
 9911SOL     OW41791   1.979   8.096   1.087
 9911SOL    HW141792   2.039   8.017   1.076
 9911SOL    HW241793   1.976   8.149   1.002
 9912SOL     OW41794   2.186   8.782   1.476
 9912SOL    HW141795   2.234   8.859   1.519
 9912SOL    HW241796   2.117   8.747   1.539
 9913SOL     OW41797   3.446   9.103   1.814
 9913SOL    HW141798   3.436   9.005   1.795
 9913SOL    HW241799   3.435   9.155   1.729
 9914SOL     OW41800   3.208   8.616   0.531
 9914SOL    HW141801   3.302   8.636   0.559
 9914SOL    HW241802   3.209   8.583   0.436
 9915SOL     OW41803   2.486   7.762   0.496
 9915SOL    HW141804   2.393   7.730   0.481
 9915SOL    HW241805   2.511   7.750   0.592
 9916SOL     OW41806   3.466   7.380   0.749
 9916SOL    HW141807   3.439   7.404   0.656
 9916SOL    HW241808   3.519   7.455   0.789
 9917SOL     OW41809   3.027   8.130   1.380
 9917SOL    HW141810   3.120   8.147   1.348
 9917SOL    HW241811   2.961   8.169   1.316
 9918SOL     OW41812   2.520   8.139   0.842
 9918SOL    HW141813   2.557   8.074   0.909
 9918SOL    HW241814   2.541   8.107   0.750
 9919SOL     OW41815   3.135   8.809   1.038
 9919SOL    HW141816   3.068   8.863   1.090
 9919SOL    HW241817   3.153   8.854   0.951
 9920SOL     OW41818   3.183   7.801   0.737
 9920SOL    HW141819   3.168   7.802   0.638
 9920SOL    HW241820   3.280   7.809   0.756
 9921SOL     OW41821   2.935   8.843   2.609
 9921SOL    HW141822   3.030   8.873   2.609
 9921SOL    HW241823   2.896   8.857   2.518
 9922SOL     OW41824   3.462   8.668   2.410
 9922SOL    HW141825   3.470   8.731   2.488
 9922SOL    HW241826   3.551   8.629   2.389
 9923SOL     OW41827   3.457   8.042   3.231
 9923SOL    HW141828   3.402   7.977   3.284
 9923SOL    HW241829   3.514   8.096   3.293
 9924SOL     OW41830   3.196   8.937   2.654
 9924SOL    HW141831   3.205   9.035   2.672
 9924SOL    HW241832   3.286   8.899   2.632
 9925SOL     OW41833   2.935   7.544   3.141
 9925SOL    HW141834   2.885   7.480   3.199
 9925SOL    HW241835   2.971   7.495   3.062
 9926SOL     OW41836   2.807   8.274   3.596
 9926SOL    HW141837   2.770   8.283   3.504
 9926SOL    HW241838   2.733   8.286   3.663
 9927SOL     OW41839   2.414   8.861   2.272
 9927SOL    HW141840   2.368   8.889   2.356
 9927SOL    HW241841   2.488   8.798   2.294
 9928SOL     OW41842   2.380   7.437   2.003
 9928SOL    HW141843   2.473   7.454   1.971
 9928SOL    HW241844   2.357   7.503   2.075
 9929SOL     OW41845   3.438   8.433   3.393
 9929SOL    HW141846   3.342   8.451   3.370
 9929SOL    HW241847   3.496   8.459   3.316
 9930SOL     OW41848   3.260   8.435   3.063
 9930SOL    HW141849   3.221   8.435   3.155
 9930SOL    HW241850   3.304   8.523   3.046
 9931SOL     OW41851   2.832   8.740   3.317
 9931SOL    HW141852   2.748   8.793   3.310
 9931SOL    HW241853   2.822   8.656   3.263
 9932SOL     OW41854   2.341   8.596   2.575
 9932SOL    HW141855   2.291   8.550   2.648
 9932SOL    HW241856   2.436   8.566   2.575
 9933SOL     OW41857   3.126   7.926   3.592
 9933SOL    HW141858   3.215   7.898   3.629
 9933SOL    HW241859   3.063   7.848   3.595
 9934SOL     OW41860   2.267   8.776   2.042
 9934SOL    HW141861   2.314   8.791   1.955
 9934SOL    HW241862   2.323   8.814   2.116
 9935SOL     OW41863   2.416   7.696   2.907
 9935SOL    HW141864   2.477   7.775   2.916
 9935SOL    HW241865   2.455   7.631   2.841
 9936SOL     OW41866   2.180   8.157   2.373
 9936SOL    HW141867   2.208   8.183   2.466
 9936SOL    HW241868   2.082   8.142   2.371
 9937SOL     OW41869   2.664   9.094   2.476
 9937SOL    HW141870   2.719   9.021   2.436
 9937SOL    HW241871   2.647   9.164   2.407
 9938SOL     OW41872   3.636   9.038   2.287
 9938SOL    HW141873   3.725   8.994   2.275
 9938SOL    HW241874   3.601   9.068   2.198
 9939SOL     OW41875   3.518   7.701   2.984
 9939SOL    HW141876   3.553   7.794   2.990
 9939SOL    HW241877   3.419   7.701   2.994
 9940SOL     OW41878   2.900   7.722   2.256
 9940SOL    HW141879   2.909   7.806   2.309
 9940SOL    HW241880   2.936   7.645   2.308
 9941SOL     OW41881   2.007   8.379   3.448
 9941SOL    HW141882   2.100   8.414   3.462
 9941SOL    HW241883   1.969   8.349   3.536
 9942SOL     OW41884   2.514   8.993   2.675
 9942SOL    HW141885   2.569   9.038   2.605
 9942SOL    HW241886   2.437   8.946   2.631
 9943SOL     OW41887   2.812   7.996   3.407
 9943SOL    HW141888   2.858   7.920   3.453
 9943SOL    HW241889   2.882   8.058   3.368
 9944SOL     OW41890   3.462   8.829   2.647
 9944SOL    HW141891   3.464   8.847   2.745
 9944SOL    HW241892   3.519   8.897   2.600
 9945SOL     OW41893   2.170   8.625   2.353
 9945SOL    HW141894   2.225   8.614   2.436
 9945SOL    HW241895   2.218   8.583   2.276
 9946SOL     OW41896   2.263   7.955   3.009
 9946SOL    HW141897   2.253   7.864   3.049
 9946SOL    HW241898   2.174   8.000   3.009
 9947SOL     OW41899   3.233   8.160   3.124
 9947SOL    HW141900   3.249   8.255   3.096
 9947SOL    HW241901   3.319   8.121   3.159
 9948SOL     OW41902   2.255   7.709   2.315
 9948SOL    HW141903   2.186   7.719   2.387
 9948SOL    HW241904   2.266   7.795   2.266
 9949SOL     OW41905   3.392   9.113   3.159
 9949SOL    HW141906   3.316   9.123   3.095
 9949SOL    HW241907   3.478   9.110   3.108
 9950SOL     OW41908   3.595   7.960   3.013
 9950SOL    HW141909   3.687   7.998   3.019
 9950SOL    HW241910   3.541   7.989   3.092
 9951SOL     OW41911   3.644   9.110   3.017
 9951SOL    HW141912   3.680   9.154   3.100
 9951SOL    HW241913   3.719   9.093   2.954
 9952SOL     OW41914   2.899   7.905   2.471
 9952SOL    HW141915   2.942   7.995   2.462
 9952SOL    HW241916   2.822   7.911   2.535
 9953SOL     OW41917   3.123   8.382   2.025
 9953SOL    HW141918   3.135   8.346   2.118
 9953SOL    HW241919   3.086   8.311   1.966
 9954SOL     OW41920   2.920   7.734   3.594
 9954SOL    HW141921   2.950   7.708   3.686
 9954SOL    HW241922   2.823   7.715   3.584
 9955SOL     OW41923   3.613   8.116   2.201
 9955SOL    HW141924   3.611   8.041   2.135
 9955SOL    HW241925   3.669   8.090   2.280
 9956SOL     OW41926   2.857   9.153   1.999
 9956SOL    HW141927   2.894   9.100   1.923
 9956SOL    HW241928   2.869   9.104   2.084
 9957SOL     OW41929   2.603   7.437   3.584
 9957SOL    HW141930   2.623   7.342   3.558
 9957SOL    HW241931   2.618   7.448   3.682
 9958SOL     OW41932   3.535   8.055   2.764
 9958SOL    HW141933   3.490   8.144   2.770
 9958SOL    HW241934   3.550   8.018   2.855
 9959SOL     OW41935   2.944   8.700   3.577
 9959SOL    HW141936   2.987   8.609   3.572
 9959SOL    HW241937   2.893   8.717   3.493
 9960SOL     OW41938   2.572   8.530   3.572
 9960SOL    HW141939   2.518   8.614   3.582
 9960SOL    HW241940   2.582   8.486   3.661
 9961SOL     OW41941   3.625   7.632   3.682
 9961SOL    HW141942   3.556   7.661   3.748
 9961SOL    HW241943   3.685   7.563   3.724
 9962SOL     OW41944   1.915   8.114   2.424
 9962SOL    HW141945   1.936   8.048   2.496
 9962SOL    HW241946   1.890   8.202   2.465
 9963SOL     OW41947   2.116   7.573   2.713
 9963SOL    HW141948   2.189   7.612   2.769
 9963SOL    HW241949   2.138   7.478   2.690
 9964SOL     OW41950   2.223   7.654   3.095
 9964SOL    HW141951   2.208   7.556   3.112
 9964SOL    HW241952   2.296   7.664   3.027
 9965SOL     OW41953   2.887   8.227   2.792
 9965SOL    HW141954   2.956   8.288   2.753
 9965SOL    HW241955   2.914   8.132   2.777
 9966SOL     OW41956   2.075   8.880   2.271
 9966SOL    HW141957   2.103   8.787   2.294
 9966SOL    HW241958   2.121   8.909   2.187
 9967SOL     OW41959   3.304   8.713   3.079
 9967SOL    HW141960   3.265   8.752   2.995
 9967SOL    HW241961   3.238   8.722   3.154
 9968SOL     OW41962   2.049   8.974   2.534
 9968SOL    HW141963   1.954   8.997   2.554
 9968SOL    HW241964   2.057   8.948   2.438
 9969SOL     OW41965   3.570   8.755   3.123
 9969SOL    HW141966   3.591   8.793   3.214
 9969SOL    HW241967   3.471   8.739   3.116
 9970SOL     OW41968   2.790   8.517   3.161
 9970SOL    HW141969   2.840   8.436   3.132
 9970SOL    HW241970   2.730   8.548   3.087
 9971SOL     OW41971   1.942   8.214   2.058
 9971SOL    HW141972   2.030   8.172   2.080
 9971SOL    HW241973   1.869   8.165   2.105
 9972SOL     OW41974   3.431   8.309   2.261
 9972SOL    HW141975   3.493   8.233   2.246
 9972SOL    HW241976   3.447   8.380   2.192
 9973SOL     OW41977   2.687   9.222   2.856
 9973SOL    HW141978   2.737   9.142   2.823
 9973SOL    HW241979   2.613   9.192   2.917
 9974SOL     OW41980   3.196   7.830   2.322
 9974SOL    HW141981   3.146   7.879   2.251
 9974SOL    HW241982   3.293   7.829   2.299
 9975SOL     OW41983   2.118   7.992   3.358
 9975SOL    HW141984   2.089   7.906   3.317
 9975SOL    HW241985   2.090   7.994   3.454
 9976SOL     OW41986   2.027   7.742   3.270
 9976SOL    HW141987   2.098   7.711   3.206
 9976SOL    HW241988   1.938   7.711   3.238
 9977SOL     OW41989   2.864   8.273   3.063
 9977SOL    HW141990   2.876   8.256   2.966
 9977SOL    HW241991   2.787   8.218   3.097
 9978SOL     OW41992   3.472   7.780   2.332
 9978SOL    HW141993   3.568   7.761   2.315
 9978SOL    HW241994   3.460   7.809   2.427
 9979SOL     OW41995   2.771   8.968   2.786
 9979SOL    HW141996   2.833   8.926   2.719
 9979SOL    HW241997   2.677   8.961   2.754
 9980SOL     OW41998   2.681   7.688   2.107
 9980SOL    HW141999   2.610   7.691   2.178
 9980SOL    HW242000   2.771   7.696   2.150
 9981SOL     OW42001   2.812   8.658   1.998
 9981SOL    HW142002   2.867   8.644   2.080
 9981SOL    HW242003   2.872   8.675   1.920
 9982SOL     OW42004   3.610   9.034   2.554
 9982SOL    HW142005   3.561   9.117   2.580
 9982SOL    HW242006   3.617   9.029   2.454
 9983SOL     OW42007   3.012   8.218   2.480
 9983SOL    HW142008   3.063   8.257   2.556
 9983SOL    HW242009   2.937   8.279   2.455
 9984SOL     OW42010   2.695   9.009   3.482
 9984SOL    HW142011   2.647   8.953   3.415
 9984SOL    HW242012   2.699   8.961   3.569
 9985SOL     OW42013   3.157   8.336   2.686
 9985SOL    HW142014   3.238   8.300   2.733
 9985SOL    HW242015   3.126   8.419   2.731
 9986SOL     OW42016   2.196   8.473   2.771
 9986SOL    HW142017   2.106   8.513   2.754
 9986SOL    HW242018   2.202   8.446   2.867
 9987SOL     OW42019   2.802   8.385   2.400
 9987SOL    HW142020   2.753   8.333   2.330
 9987SOL    HW242021   2.737   8.422   2.465
 9988SOL     OW42022   3.107   8.747   3.269
 9988SOL    HW142023   3.150   8.832   3.300
 9988SOL    HW242024   3.008   8.751   3.285
 9989SOL     OW42025   1.883   7.658   2.296
 9989SOL    HW142026   1.883   7.558   2.305
 9989SOL    HW242027   1.947   7.697   2.362
 9990SOL     OW42028   3.539   9.175   2.065
 9990SOL    HW142029   3.629   9.215   2.051
 9990SOL    HW242030   3.501   9.146   1.977
 9991SOL     OW42031   2.668   8.146   3.212
 9991SOL    HW142032   2.657   8.226   3.271
 9991SOL    HW242033   2.711   8.072   3.263
 9992SOL     OW42034   1.943   9.227   3.259
 9992SOL    HW142035   1.948   9.326   3.274
 9992SOL    HW242036   1.914   9.182   3.343
 9993SOL     OW42037   2.654   8.251   2.210
 9993SOL    HW142038   2.555   8.241   2.209
 9993SOL    HW242039   2.696   8.163   2.188
 9994SOL     OW42040   2.263   7.954   2.730
 9994SOL    HW142041   2.316   7.885   2.682
 9994SOL    HW242042   2.275   7.943   2.829
 9995SOL     OW42043   2.171   9.130   2.091
 9995SOL    HW142044   2.254   9.161   2.043
 9995SOL    HW242045   2.179   9.153   2.188
 9996SOL     OW42046   3.175   9.129   2.987
 9996SOL    HW142047   3.202   9.155   2.894
 9996SOL    HW242048   3.098   9.066   2.983
 9997SOL     OW42049   1.930   8.588   2.802
 9997SOL    HW142050   1.849   8.592   2.744
 9997SOL    HW242051   1.916   8.520   2.874
 9998SOL     OW42052   2.604   7.422   2.258
 9998SOL    HW142053   2.634   7.434   2.163
 9998SOL    HW242054   2.571   7.509   2.294
 9999SOL     OW42055   1.895   8.566   2.358
 9999SOL    HW142056   1.989   8.596   2.371
 9999SOL    HW242057   1.881   8.539   2.263
10000SOL     OW42058   3.487   7.680   3.439
10000SOL    HW142059   3.424   7.758   3.433
10000SOL    HW242060   3.530   7.679   3.529
10001SOL     OW42061   3.115   7.645   2.798
10001SOL    HW142062   3.135   7.702   2.719
10001SOL    HW242063   3.171   7.675   2.876
10002SOL     OW42064   3.437   7.410   3.425
10002SOL    HW142065   3.427   7.381   3.330
10002SOL    HW242066   3.450   7.509   3.428
10003SOL     OW42067   3.093   7.952   3.011
10003SOL    HW142068   3.061   7.976   2.920
10003SOL    HW242069   3.138   8.032   3.052
10004SOL     OW42070   2.436   8.778   3.629
10004SOL    HW142071   2.389   8.846   3.573
10004SOL    HW242072   2.525   8.814   3.657
10005SOL     OW42073   2.258   8.478   3.483
10005SOL    HW142074   2.319   8.442   3.412
10005SOL    HW242075   2.249   8.577   3.472
10006SOL     OW42076   1.986   8.786   2.987
10006SOL    HW142077   1.970   8.724   2.910
10006SOL    HW242078   1.903   8.792   3.042
10007SOL     OW42079   2.984   7.972   2.760
10007SOL    HW142080   3.057   7.938   2.701
10007SOL    HW242081   2.904   7.911   2.753
10008SOL     OW42082   3.603   8.005   3.587
10008SOL    HW142083   3.592   8.075   3.517
10008SOL    HW242084   3.699   7.995   3.610
10009SOL     OW42085   3.249   7.730   3.025
10009SOL    HW142086   3.201   7.818   3.018
10009SOL    HW242087   3.228   7.688   3.114
10010SOL     OW42088   3.379   7.861   3.672
10010SOL    HW142089   3.459   7.912   3.642
10010SOL    HW242090   3.402   7.806   3.752
10011SOL     OW42091   3.166   8.240   2.255
10011SOL    HW142092   3.119   8.233   2.343
10011SOL    HW242093   3.262   8.261   2.271
10012SOL     OW42094   3.405   8.367   2.524
10012SOL    HW142095   3.413   8.354   2.425
10012SOL    HW242096   3.309   8.357   2.552
10013SOL     OW42097   3.601   8.208   3.395
10013SOL    HW142098   3.535   8.283   3.390
10013SOL    HW242099   3.694   8.246   3.396
10014SOL     OW42100   3.543   7.687   2.043
10014SOL    HW142101   3.502   7.682   2.134
10014SOL    HW242102   3.612   7.616   2.035
10015SOL     OW42103   2.576   8.867   3.279
10015SOL    HW142104   2.516   8.944   3.261
10015SOL    HW242105   2.540   8.785   3.235
10016SOL     OW42106   1.993   7.684   3.541
10016SOL    HW142107   2.008   7.701   3.443
10016SOL    HW242108   1.899   7.656   3.556
10017SOL     OW42109   1.880   9.100   3.500
10017SOL    HW142110   1.966   9.115   3.548
10017SOL    HW242111   1.803   9.110   3.563
10018SOL     OW42112   2.055   7.731   2.499
10018SOL    HW142113   2.025   7.818   2.539
10018SOL    HW242114   2.078   7.667   2.572
10019SOL     OW42115   3.239   8.971   3.343
10019SOL    HW142116   3.173   9.037   3.380
10019SOL    HW242117   3.297   9.017   3.275
10020SOL     OW42118   2.294   7.961   2.217
10020SOL    HW142119   2.353   8.012   2.155
10020SOL    HW242120   2.249   8.024   2.280
10021SOL     OW42121   3.646   7.629   3.224
10021SOL    HW142122   3.582   7.652   3.297
10021SOL    HW242123   3.602   7.644   3.135
10022SOL     OW42124   2.219   9.186   2.601
10022SOL    HW142125   2.157   9.108   2.597
10022SOL    HW242126   2.243   9.215   2.508
10023SOL     OW42127   2.201   8.675   3.123
10023SOL    HW142128   2.198   8.700   3.220
10023SOL    HW242129   2.128   8.721   3.074
10024SOL     OW42130   3.002   8.962   3.652
10024SOL    HW142131   2.980   8.867   3.627
10024SOL    HW242132   3.017   9.015   3.568
10025SOL     OW42133   2.609   8.678   2.351
10025SOL    HW142134   2.614   8.619   2.270
10025SOL    HW242135   2.609   8.621   2.433
10026SOL     OW42136   2.225   8.212   2.637
10026SOL    HW142137   2.258   8.289   2.691
10026SOL    HW242138   2.256   8.126   2.678
10027SOL     OW42139   1.987   7.956   2.636
10027SOL    HW142140   1.912   7.987   2.695
10027SOL    HW242141   2.074   7.966   2.683
10028SOL     OW42142   2.337   8.527   2.147
10028SOL    HW142143   2.437   8.526   2.138
10028SOL    HW242144   2.300   8.602   2.093
10029SOL     OW42145   3.052   8.142   1.897
10029SOL    HW142146   2.973   8.193   1.863
10029SOL    HW242147   3.118   8.130   1.822
10030SOL     OW42148   2.774   8.005   2.160
10030SOL    HW142149   2.874   8.008   2.162
10030SOL    HW242150   2.744   7.916   2.127
10031SOL     OW42151   3.215   7.578   2.454
10031SOL    HW142152   3.120   7.576   2.484
10031SOL    HW242153   3.229   7.657   2.393
10032SOL     OW42154   3.289   7.873   3.365
10032SOL    HW142155   3.232   7.916   3.435
10032SOL    HW242156   3.238   7.801   3.319
10033SOL     OW42157   1.876   7.410   2.036
10033SOL    HW142158   1.966   7.369   2.024
10033SOL    HW242159   1.887   7.505   2.065
10034SOL     OW42160   2.169   8.415   3.039
10034SOL    HW142161   2.170   8.347   3.112
10034SOL    HW242162   2.189   8.505   3.076
10035SOL     OW42163   3.502   8.462   2.047
10035SOL    HW142164   3.600   8.480   2.060
10035SOL    HW242165   3.485   8.442   1.950
10036SOL     OW42166   2.506   8.109   2.989
10036SOL    HW142167   2.551   8.126   3.077
10036SOL    HW242168   2.417   8.067   3.004
10037SOL     OW42169   2.671   8.379   3.369
10037SOL    HW142170   2.721   8.435   3.303
10037SOL    HW242171   2.639   8.437   3.444
10038SOL     OW42172   3.023   8.435   3.543
10038SOL    HW142173   2.942   8.380   3.562
10038SOL    HW242174   3.105   8.384   3.571
10039SOL     OW42175   2.952   7.625   2.519
10039SOL    HW142176   2.935   7.723   2.510
10039SOL    HW242177   2.903   7.589   2.599
10040SOL     OW42178   3.047   9.134   3.443
10040SOL    HW142179   2.970   9.150   3.381
10040SOL    HW242180   3.074   9.220   3.486
10041SOL     OW42181   2.570   7.573   2.711
10041SOL    HW142182   2.540   7.482   2.740
10041SOL    HW242183   2.670   7.580   2.721
10042SOL     OW42184   2.184   9.190   3.132
10042SOL    HW142185   2.165   9.137   3.049
10042SOL    HW242186   2.100   9.198   3.186
10043SOL     OW42187   2.832   8.621   2.735
10043SOL    HW142188   2.865   8.702   2.687
10043SOL    HW242189   2.909   8.576   2.780
10044SOL     OW42190   2.617   8.305   2.809
10044SOL    HW142191   2.711   8.273   2.796
10044SOL    HW242192   2.567   8.238   2.864
10045SOL     OW42193   1.898   8.396   2.994
10045SOL    HW142194   1.996   8.394   3.013
10045SOL    HW242195   1.875   8.325   2.927
10046SOL     OW42196   2.173   7.440   2.286
10046SOL    HW142197   2.204   7.534   2.299
10046SOL    HW242198   2.082   7.429   2.327
10047SOL     OW42199   2.556   8.029   3.527
10047SOL    HW142200   2.495   8.062   3.455
10047SOL    HW242201   2.649   8.020   3.490
10048SOL     OW42202   1.901   8.490   2.093
10048SOL    HW142203   1.932   8.397   2.079
10048SOL    HW242204   1.951   8.552   2.033
10049SOL     OW42205   3.580   7.627   2.724
10049SOL    HW142206   3.557   7.640   2.821
10049SOL    HW242207   3.679   7.615   2.715
10050SOL     OW42208   2.638   8.557   2.929
10050SOL    HW142209   2.617   8.466   2.894
10050SOL    HW242210   2.701   8.604   2.867
10051SOL     OW42211   3.055   8.017   2.144
10051SOL    HW142212   3.096   8.093   2.194
10051SOL    HW242213   3.051   8.039   2.046
10052SOL     OW42214   3.389   8.829   3.522
10052SOL    HW142215   3.349   8.746   3.561
10052SOL    HW242216   3.323   8.870   3.459
10053SOL     OW42217   2.084   8.229   3.228
10053SOL    HW142218   2.096   8.139   3.270
10053SOL    HW242219   2.051   8.293   3.297
10054SOL     OW42220   2.649   8.858   1.873
10054SOL    HW142221   2.609   8.916   1.944
10054SOL    HW242222   2.704   8.786   1.916
10055SOL     OW42223   2.465   9.076   2.933
10055SOL    HW142224   2.476   9.039   2.841
10055SOL    HW242225   2.389   9.030   2.979
10056SOL     OW42226   2.625   8.502   2.593
10056SOL    HW142227   2.697   8.555   2.637
10056SOL    HW242228   2.601   8.424   2.652
10057SOL     OW42229   2.804   8.879   2.371
10057SOL    HW142230   2.866   8.888   2.293
10057SOL    HW242231   2.740   8.805   2.354
10058SOL     OW42232   1.978   8.243   2.761
10058SOL    HW142233   2.067   8.233   2.716
10058SOL    HW242234   1.912   8.281   2.697
10059SOL     OW42235   1.890   8.299   3.673
10059SOL    HW142236   1.790   8.308   3.674
10059SOL    HW242237   1.920   8.248   3.753
10060SOL     OW42238   2.818   9.160   3.284
10060SOL    HW142239   2.780   9.100   3.354
10060SOL    HW242240   2.749   9.226   3.256
10061SOL     OW42241   3.070   8.531   2.860
10061SOL    HW142242   3.093   8.628   2.863
10061SOL    HW242243   3.110   8.484   2.939
10062SOL     OW42244   2.373   7.787   3.647
10062SOL    HW142245   2.448   7.772   3.582
10062SOL    HW242246   2.372   7.883   3.675
10063SOL     OW42247   2.378   8.257   2.209
10063SOL    HW142248   2.355   8.349   2.177
10063SOL    HW242249   2.306   8.225   2.271
10064SOL     OW42250   3.399   8.316   2.835
10064SOL    HW142251   3.445   8.395   2.794
10064SOL    HW242252   3.364   8.343   2.925
10065SOL     OW42253   3.154   7.648   3.268
10065SOL    HW142254   3.158   7.607   3.359
10065SOL    HW242255   3.071   7.617   3.222
10066SOL     OW42256   1.913   7.392   2.357
10066SOL    HW142257   1.888   7.309   2.307
10066SOL    HW242258   1.855   7.402   2.438
10067SOL     OW42259   3.128   7.558   3.526
10067SOL    HW142260   3.196   7.562   3.600
10067SOL    HW242261   3.051   7.617   3.550
10068SOL     OW42262   2.296   8.975   3.486
10068SOL    HW142263   2.236   9.037   3.536
10068SOL    HW242264   2.342   9.025   3.413
10069SOL     OW42265   3.620   8.841   3.377
10069SOL    HW142266   3.667   8.927   3.398
10069SOL    HW242267   3.536   8.834   3.431
10070SOL     OW42268   2.855   7.802   3.036
10070SOL    HW142269   2.939   7.856   3.038
10070SOL    HW242270   2.873   7.710   3.070
10071SOL     OW42271   2.309   8.868   2.543
10071SOL    HW142272   2.317   8.769   2.556
10071SOL    HW242273   2.213   8.895   2.547
10072SOL     OW42274   2.947   8.970   2.996
10072SOL    HW142275   2.880   8.971   2.922
10072SOL    HW242276   2.900   8.977   3.084
10073SOL     OW42277   2.122   9.149   3.632
10073SOL    HW142278   2.150   9.245   3.633
10073SOL    HW242279   2.122   9.113   3.726
10074SOL     OW42280   1.964   8.661   3.514
10074SOL    HW142281   1.946   8.568   3.483
10074SOL    HW242282   1.895   8.723   3.476
10075SOL     OW42283   2.101   9.030   2.921
10075SOL    HW142284   2.064   8.940   2.944
10075SOL    HW242285   2.124   9.032   2.823
10076SOL     OW42286   2.846   7.554   2.767
10076SOL    HW142287   2.935   7.591   2.792
10076SOL    HW242288   2.825   7.475   2.824
10077SOL     OW42289   2.930   8.592   2.247
10077SOL    HW142290   3.017   8.617   2.290
10077SOL    HW242291   2.888   8.517   2.299
10078SOL     OW42292   3.455   7.843   2.605
10078SOL    HW142293   3.483   7.927   2.652
10078SOL    HW242294   3.502   7.765   2.645
10079SOL     OW42295   2.612   8.516   2.129
10079SOL    HW142296   2.680   8.562   2.072
10079SOL    HW242297   2.640   8.421   2.144
10080SOL     OW42298   2.639   7.468   1.945
10080SOL    HW142299   2.709   7.398   1.964
10080SOL    HW242300   2.669   7.556   1.983
10081SOL     OW42301   2.415   8.404   3.273
10081SOL    HW142302   2.504   8.379   3.311
10081SOL    HW242303   2.424   8.487   3.219
10082SOL     OW42304   3.598   8.488   3.181
10082SOL    HW142305   3.596   8.585   3.157
10082SOL    HW242306   3.651   8.437   3.113
10083SOL     OW42307   2.037   8.659   1.929
10083SOL    HW142308   2.026   8.682   1.832
10083SOL    HW242309   2.116   8.708   1.966
10084SOL     OW42310   2.517   9.004   2.057
10084SOL    HW142311   2.463   9.084   2.030
10084SOL    HW242312   2.483   8.969   2.144
10085SOL     OW42313   3.175   8.488   3.317
10085SOL    HW142314   3.118   8.452   3.391
10085SOL    HW242315   3.152   8.584   3.301
10086SOL     OW42316   2.412   9.103   3.266
10086SOL    HW142317   2.479   9.177   3.264
10086SOL    HW242318   2.330   9.130   3.216
10087SOL     OW42319   2.028   7.948   3.619
10087SOL    HW142320   2.021   7.849   3.604
10087SOL    HW242321   2.089   7.965   3.697
10088SOL     OW42322   3.496   8.905   2.901
10088SOL    HW142323   3.535   8.995   2.923
10088SOL    HW242324   3.519   8.841   2.975
10089SOL     OW42325   1.850   8.354   2.535
10089SOL    HW142326   1.882   8.430   2.478
10089SOL    HW242327   1.750   8.355   2.537
10090SOL     OW42328   2.372   8.121   3.347
10090SOL    HW142329   2.284   8.074   3.346
10090SOL    HW242330   2.362   8.212   3.306
10091SOL     OW42331   3.493   8.554   2.703
10091SOL    HW142332   3.470   8.650   2.685
10091SOL    HW242333   3.463   8.498   2.625
10092SOL     OW42334   2.629   7.879   2.897
10092SOL    HW142335   2.708   7.850   2.951
10092SOL    HW242336   2.596   7.967   2.933
10093SOL     OW42337   2.474   8.647   3.136
10093SOL    HW142338   2.378   8.664   3.113
10093SOL    HW242339   2.524   8.623   3.052
10094SOL     OW42340   2.020   8.090   2.993
10094SOL    HW142341   2.034   8.151   3.071
10094SOL    HW242342   2.005   8.144   2.911
10095SOL     OW42343   2.193   8.739   3.389
10095SOL    HW142344   2.232   8.826   3.422
10095SOL    HW242345   2.108   8.721   3.437
10096SOL     OW42346   3.486   9.069   3.614
10096SOL    HW142347   3.452   8.977   3.596
10096SOL    HW242348   3.452   9.132   3.544
10097SOL     OW42349   3.196   8.639   2.337
10097SOL    HW142350   3.288   8.644   2.376
10097SOL    HW242351   3.202   8.634   2.237
10098SOL     OW42352   3.421   7.455   2.576
10098SOL    HW142353   3.346   7.503   2.531
10098SOL    HW242354   3.475   7.521   2.630
10099SOL     OW42355   2.992   8.158   3.279
10099SOL    HW142356   3.090   8.147   3.262
10099SOL    HW242357   2.950   8.208   3.203
10100SOL     OW42358   3.130   8.796   2.880
10100SOL    HW142359   3.062   8.851   2.929
10100SOL    HW242360   3.156   8.843   2.796
10101SOL     OW42361   3.180   7.850   2.606
10101SOL    HW142362   3.155   7.846   2.510
10101SOL    HW242363   3.279   7.851   2.616
10102SOL     OW42364   2.934   8.843   4.441
10102SOL    HW142365   3.022   8.891   4.442
10102SOL    HW242366   2.892   8.852   4.351
10103SOL     OW42367   3.469   8.628   4.263
10103SOL    HW142368   3.479   8.687   4.343
10103SOL    HW242369   3.559   8.595   4.235
10104SOL     OW42370   3.460   8.038   5.080
10104SOL    HW142371   3.402   7.978   5.135
10104SOL    HW242372   3.516   8.094   5.141
10105SOL     OW42373   2.201   7.587   3.688
10105SOL    HW142374   2.120   7.609   3.634
10105SOL    HW242375   2.272   7.656   3.670
10106SOL     OW42376   3.173   8.986   4.472
10106SOL    HW142377   3.187   9.079   4.507
10106SOL    HW242378   3.246   8.964   4.407
10107SOL     OW42379   3.036   7.478   4.924
10107SOL    HW142380   2.963   7.434   4.976
10107SOL    HW242381   3.091   7.409   4.878
10108SOL     OW42382   2.811   8.316   5.421
10108SOL    HW142383   2.755   8.339   5.341
10108SOL    HW242384   2.758   8.330   5.504
10109SOL     OW42385   2.410   8.858   4.096
10109SOL    HW142386   2.367   8.888   4.181
10109SOL    HW242387   2.483   8.793   4.116
10110SOL     OW42388   2.385   7.424   3.835
10110SOL    HW142389   2.478   7.460   3.842
10110SOL    HW242390   2.329   7.486   3.780
10111SOL     OW42391   3.459   8.445   5.238
10111SOL    HW142392   3.364   8.469   5.216
10111SOL    HW242393   3.519   8.475   5.164
10112SOL     OW42394   3.291   8.439   4.917
10112SOL    HW142395   3.256   8.448   5.010
10112SOL    HW242396   3.321   8.529   4.884
10113SOL     OW42397   2.827   8.747   5.157
10113SOL    HW142398   2.750   8.810   5.145
10113SOL    HW242399   2.810   8.664   5.104
10114SOL     OW42400   2.326   8.604   4.366
10114SOL    HW142401   2.273   8.554   4.435
10114SOL    HW242402   2.423   8.580   4.375
10115SOL     OW42403   2.566   8.006   4.266
10115SOL    HW142404   2.597   8.082   4.209
10115SOL    HW242405   2.541   7.929   4.207
10116SOL     OW42406   3.142   7.914   5.453
10116SOL    HW142407   3.230   7.890   5.495
10116SOL    HW242408   3.069   7.858   5.494
10117SOL     OW42409   2.279   8.765   3.860
10117SOL    HW142410   2.336   8.777   3.779
10117SOL    HW242411   2.322   8.809   3.938
10118SOL     OW42412   2.404   7.708   4.701
10118SOL    HW142413   2.454   7.795   4.693
10118SOL    HW242414   2.466   7.633   4.678
10119SOL     OW42415   2.184   8.124   4.185
10119SOL    HW142416   2.225   8.152   4.272
10119SOL    HW242417   2.086   8.109   4.198
10120SOL     OW42418   2.664   9.084   4.315
10120SOL    HW142419   2.717   9.011   4.271
10120SOL    HW242420   2.641   9.154   4.247
10121SOL     OW42421   3.541   8.897   4.076
10121SOL    HW142422   3.626   8.846   4.064
10121SOL    HW242423   3.532   8.963   4.002
10122SOL     OW42424   3.514   7.713   4.804
10122SOL    HW142425   3.551   7.804   4.820
10122SOL    HW242426   3.414   7.716   4.810
10123SOL     OW42427   2.920   7.751   4.057
10123SOL    HW142428   2.970   7.838   4.057
10123SOL    HW242429   2.929   7.707   4.147
10124SOL     OW42430   2.363   8.063   3.717
10124SOL    HW142431   2.335   8.159   3.718
10124SOL    HW242432   2.440   8.051   3.655
10125SOL     OW42433   2.510   8.983   4.510
10125SOL    HW142434   2.568   9.029   4.442
10125SOL    HW242435   2.431   8.943   4.464
10126SOL     OW42436   2.820   8.013   5.273
10126SOL    HW142437   2.861   7.934   5.317
10126SOL    HW242438   2.890   8.064   5.222
10127SOL     OW42439   3.474   8.794   4.502
10127SOL    HW142440   3.487   8.843   4.588
10127SOL    HW242441   3.445   8.857   4.431
10128SOL     OW42442   2.144   8.646   4.160
10128SOL    HW142443   2.212   8.632   4.232
10128SOL    HW242444   2.166   8.587   4.082
10129SOL     OW42445   3.029   7.656   3.824
10129SOL    HW142446   3.104   7.593   3.843
10129SOL    HW242447   2.988   7.686   3.910
10130SOL     OW42448   2.220   7.930   4.963
10130SOL    HW142449   2.222   7.831   4.948
10130SOL    HW242450   2.146   7.971   4.911
10131SOL     OW42451   3.243   8.167   4.973
10131SOL    HW142452   3.262   8.263   4.950
10131SOL    HW242453   3.326   8.124   5.009
10132SOL     OW42454   2.238   7.674   4.147
10132SOL    HW142455   2.184   7.709   4.224
10132SOL    HW242456   2.187   7.687   4.062
10133SOL     OW42457   3.405   9.138   5.062
10133SOL    HW142458   3.352   9.139   4.978
10133SOL    HW242459   3.500   9.165   5.043
10134SOL     OW42460   3.604   7.963   4.860
10134SOL    HW142461   3.698   7.995   4.868
10134SOL    HW242462   3.552   7.992   4.941
10135SOL     OW42463   2.780   7.857   4.371
10135SOL    HW142464   2.846   7.905   4.428
10135SOL    HW242465   2.714   7.923   4.334
10136SOL     OW42466   3.092   8.345   3.852
10136SOL    HW142467   3.109   8.308   3.943
10136SOL    HW242468   3.049   8.274   3.795
10137SOL     OW42469   2.931   7.777   5.574
10137SOL    HW142470   2.989   7.752   5.652
10137SOL    HW242471   2.838   7.793   5.605
10138SOL     OW42472   3.583   8.073   4.073
10138SOL    HW142473   3.534   7.987   4.080
10138SOL    HW242474   3.650   8.079   4.147
10139SOL     OW42475   2.841   9.144   3.812
10139SOL    HW142476   2.873   9.094   3.731
10139SOL    HW242477   2.855   9.088   3.893
10140SOL     OW42478   2.654   7.426   5.390
10140SOL    HW142479   2.684   7.336   5.359
10140SOL    HW242480   2.672   7.434   5.488
10141SOL     OW42481   3.530   8.057   4.614
10141SOL    HW142482   3.485   8.146   4.623
10141SOL    HW242483   3.551   8.021   4.705
10142SOL     OW42484   2.938   8.718   5.425
10142SOL    HW142485   2.987   8.631   5.417
10142SOL    HW242486   2.892   8.739   5.339
10143SOL     OW42487   3.220   7.380   4.538
10143SOL    HW142488   3.178   7.470   4.555
10143SOL    HW242489   3.310   7.393   4.496
10144SOL     OW42490   3.637   7.557   5.469
10144SOL    HW142491   3.676   7.565   5.561
10144SOL    HW242492   3.592   7.469   5.459
10145SOL     OW42493   1.925   8.099   4.279
10145SOL    HW142494   1.927   8.031   4.352
10145SOL    HW242495   1.895   8.187   4.317
10146SOL     OW42496   2.191   7.589   4.519
10146SOL    HW142497   2.263   7.625   4.579
10146SOL    HW242498   2.197   7.489   4.516
10147SOL     OW42499   2.227   7.659   4.908
10147SOL    HW142500   2.205   7.561   4.913
10147SOL    HW242501   2.292   7.674   4.834
10148SOL     OW42502   2.899   8.195   4.640
10148SOL    HW142503   2.915   8.267   4.572
10148SOL    HW242504   2.916   8.106   4.599
10149SOL     OW42505   2.048   8.900   4.095
10149SOL    HW142506   2.082   8.808   4.110
10149SOL    HW242507   2.096   8.941   4.017
10150SOL     OW42508   3.302   8.725   4.903
10150SOL    HW142509   3.265   8.776   4.825
10150SOL    HW242510   3.238   8.731   4.980
10151SOL     OW42511   2.049   8.981   4.364
10151SOL    HW142512   1.954   8.993   4.393
10151SOL    HW242513   2.051   8.965   4.265
10152SOL     OW42514   3.572   8.777   4.950
10152SOL    HW142515   3.588   8.801   5.046
10152SOL    HW242516   3.475   8.754   4.938
10153SOL     OW42517   2.330   8.338   3.716
10153SOL    HW142518   2.303   8.385   3.633
10153SOL    HW242519   2.312   8.396   3.796
10154SOL     OW42520   2.763   8.525   4.997
10154SOL    HW142521   2.809   8.439   4.972
10154SOL    HW242522   2.713   8.559   4.917
10155SOL     OW42523   1.956   8.173   3.904
10155SOL    HW142524   2.031   8.107   3.908
10155SOL    HW242525   1.879   8.139   3.958
10156SOL     OW42526   3.418   8.292   4.108
10156SOL    HW142527   3.480   8.214   4.094
10156SOL    HW242528   3.438   8.362   4.040
10157SOL     OW42529   2.691   9.208   4.697
10157SOL    HW142530   2.736   9.126   4.661
10157SOL    HW242531   2.623   9.181   4.766
10158SOL     OW42532   2.600   8.291   3.777
10158SOL    HW142533   2.624   8.200   3.811
10158SOL    HW242534   2.502   8.293   3.754
10159SOL     OW42535   3.214   7.806   4.139
10159SOL    HW142536   3.170   7.873   4.079
10159SOL    HW242537   3.313   7.820   4.137
10160SOL     OW42538   2.152   8.081   5.181
10160SOL    HW142539   2.175   8.015   5.110
10160SOL    HW242540   2.110   8.034   5.258
10161SOL     OW42541   2.065   7.699   5.139
10161SOL    HW142542   2.125   7.685   5.060
10161SOL    HW242543   1.970   7.706   5.108
10162SOL     OW42544   2.850   8.277   4.897
10162SOL    HW142545   2.861   8.237   4.806
10162SOL    HW242546   2.778   8.227   4.946
10163SOL     OW42547   3.488   7.821   4.154
10163SOL    HW142548   3.582   7.788   4.139
10163SOL    HW242549   3.474   7.839   4.251
10164SOL     OW42550   2.765   8.952   4.625
10164SOL    HW142551   2.828   8.914   4.558
10164SOL    HW242552   2.671   8.946   4.591
10165SOL     OW42553   2.679   7.771   3.939
10165SOL    HW142554   2.607   7.762   4.009
10165SOL    HW242555   2.768   7.764   3.983
10166SOL     OW42556   2.823   8.673   3.840
10166SOL    HW142557   2.877   8.654   3.922
10166SOL    HW242558   2.883   8.672   3.760
10167SOL     OW42559   3.404   8.968   4.306
10167SOL    HW142560   3.446   9.058   4.314
10167SOL    HW242561   3.440   8.922   4.225
10168SOL     OW42562   3.032   8.285   4.319
10168SOL    HW142563   3.077   8.321   4.400
10168SOL    HW242564   2.949   8.337   4.301
10169SOL     OW42565   2.693   9.022   5.332
10169SOL    HW142566   2.646   8.969   5.262
10169SOL    HW242567   2.681   8.977   5.421
10170SOL     OW42568   3.171   8.356   4.548
10170SOL    HW142569   3.252   8.325   4.598
10170SOL    HW242570   3.112   8.409   4.610
10171SOL     OW42571   2.182   8.469   4.554
10171SOL    HW142572   2.088   8.502   4.561
10171SOL    HW242573   2.218   8.452   4.645
10172SOL     OW42574   2.789   8.400   4.241
10172SOL    HW142575   2.746   8.329   4.185
10172SOL    HW242576   2.722   8.437   4.305
10173SOL     OW42577   3.105   8.755   5.098
10173SOL    HW142578   3.149   8.836   5.137
10173SOL    HW242579   3.007   8.759   5.112
10174SOL     OW42580   1.899   7.735   4.114
10174SOL    HW142581   1.960   7.741   4.035
10174SOL    HW242582   1.952   7.742   4.198
10175SOL     OW42583   3.522   9.096   3.886
10175SOL    HW142584   3.606   9.150   3.896
10175SOL    HW242585   3.501   9.084   3.789
10176SOL     OW42586   2.676   8.153   5.077
10176SOL    HW142587   2.650   8.235   5.129
10176SOL    HW242588   2.721   8.088   5.138
10177SOL     OW42589   1.927   9.218   5.100
10177SOL    HW142590   1.881   9.306   5.097
10177SOL    HW242591   1.909   9.173   5.188
10178SOL     OW42592   2.646   8.205   4.098
10178SOL    HW142593   2.552   8.233   4.078
10178SOL    HW242594   2.683   8.156   4.019
10179SOL     OW42595   2.170   7.928   4.611
10179SOL    HW142596   2.230   7.917   4.532
10179SOL    HW242597   2.208   7.879   4.689
10180SOL     OW42598   2.151   9.126   3.917
10180SOL    HW142599   2.239   9.159   3.882
10180SOL    HW242600   2.142   9.151   4.013
10181SOL     OW42601   3.268   9.113   4.826
10181SOL    HW142602   3.262   9.170   4.744
10181SOL    HW242603   3.222   9.026   4.809
10182SOL     OW42604   1.925   8.556   4.628
10182SOL    HW142605   1.840   8.580   4.580
10182SOL    HW242606   1.908   8.478   4.687
10183SOL     OW42607   2.597   7.454   4.125
10183SOL    HW142608   2.614   7.450   4.026
10183SOL    HW242609   2.557   7.542   4.148
10184SOL     OW42610   1.880   8.539   4.209
10184SOL    HW142611   1.959   8.597   4.225
10184SOL    HW242612   1.886   8.500   4.117
10185SOL     OW42613   3.509   7.712   5.257
10185SOL    HW142614   3.436   7.780   5.258
10185SOL    HW242615   3.539   7.692   5.350
10186SOL     OW42616   3.123   7.628   4.609
10186SOL    HW142617   3.142   7.695   4.536
10186SOL    HW242618   3.164   7.660   4.695
10187SOL     OW42619   3.237   7.485   3.893
10187SOL    HW142620   3.236   7.389   3.867
10187SOL    HW242621   3.206   7.495   3.988
10188SOL     OW42622   3.433   7.452   5.230
10188SOL    HW142623   3.427   7.420   5.136
10188SOL    HW242624   3.456   7.549   5.231
10189SOL     OW42625   2.561   7.695   4.411
10189SOL    HW142626   2.563   7.622   4.480
10189SOL    HW242627   2.647   7.747   4.414
10190SOL     OW42628   3.113   7.990   4.811
10190SOL    HW142629   3.097   8.038   4.724
10190SOL    HW242630   3.156   8.052   4.876
10191SOL     OW42631   3.440   7.439   4.145
10191SOL    HW142632   3.462   7.397   4.057
10191SOL    HW242633   3.344   7.467   4.145
10192SOL     OW42634   2.382   8.805   5.502
10192SOL    HW142635   2.345   8.863   5.430
10192SOL    HW242636   2.475   8.835   5.524
10193SOL     OW42637   1.988   8.753   4.807
10193SOL    HW142638   1.969   8.691   4.732
10193SOL    HW242639   1.918   8.743   4.878
10194SOL     OW42640   2.971   7.951   4.541
10194SOL    HW142641   3.052   7.909   4.500
10194SOL    HW242642   2.940   7.895   4.618
10195SOL     OW42643   3.589   8.008   5.430
10195SOL    HW142644   3.583   8.081   5.362
10195SOL    HW242645   3.683   7.974   5.434
10196SOL     OW42646   3.240   7.745   4.836
10196SOL    HW142647   3.200   7.837   4.828
10196SOL    HW242648   3.226   7.711   4.929
10197SOL     OW42649   3.396   7.855   5.553
10197SOL    HW142650   3.464   7.910   5.503
10197SOL    HW242651   3.442   7.805   5.627
10198SOL     OW42652   3.156   8.220   4.089
10198SOL    HW142653   3.107   8.241   4.174
10198SOL    HW242654   3.252   8.247   4.099
10199SOL     OW42655   3.405   8.341   4.377
10199SOL    HW142656   3.405   8.333   4.277
10199SOL    HW242657   3.311   8.343   4.411
10200SOL     OW42658   3.604   8.210   5.240
10200SOL    HW142659   3.542   8.288   5.231
10200SOL    HW242660   3.698   8.244   5.246
10201SOL     OW42661   3.437   7.689   3.880
10201SOL    HW142662   3.455   7.720   3.973
10201SOL    HW242663   3.371   7.613   3.883
10202SOL     OW42664   2.578   8.907   5.111
10202SOL    HW142665   2.516   8.986   5.113
10202SOL    HW242666   2.554   8.847   5.035
10203SOL     OW42667   2.054   7.651   5.404
10203SOL    HW142668   2.066   7.663   5.305
10203SOL    HW242669   1.958   7.634   5.425
10204SOL     OW42670   1.891   9.075   5.334
10204SOL    HW142671   1.976   9.096   5.382
10204SOL    HW242672   1.814   9.077   5.398
10205SOL     OW42673   2.048   7.737   4.341
10205SOL    HW142674   1.999   7.807   4.392
10205SOL    HW242675   2.099   7.679   4.404
10206SOL     OW42676   3.235   8.968   5.201
10206SOL    HW142677   3.168   9.027   5.244
10206SOL    HW242678   3.301   9.024   5.151
10207SOL     OW42679   2.177   7.995   3.918
10207SOL    HW142680   2.254   8.019   3.857
10207SOL    HW242681   2.197   8.029   4.010
10208SOL     OW42682   3.652   7.636   5.038
10208SOL    HW142683   3.597   7.671   5.114
10208SOL    HW242684   3.603   7.652   4.952
10209SOL     OW42685   2.225   9.186   4.436
10209SOL    HW142686   2.158   9.112   4.428
10209SOL    HW242687   2.253   9.215   4.344
10210SOL     OW42688   2.227   8.673   4.924
10210SOL    HW142689   2.216   8.700   5.019
10210SOL    HW242690   2.148   8.704   4.871
10211SOL     OW42691   3.012   8.970   5.528
10211SOL    HW142692   2.986   8.877   5.502
10211SOL    HW242693   3.024   9.026   5.446
10212SOL     OW42694   2.603   8.672   4.167
10212SOL    HW142695   2.613   8.610   4.088
10212SOL    HW242696   2.604   8.618   4.251
10213SOL     OW42697   2.257   8.220   4.438
10213SOL    HW142698   2.239   8.313   4.470
10213SOL    HW242699   2.343   8.186   4.477
10214SOL     OW42700   2.097   7.728   3.913
10214SOL    HW142701   2.139   7.680   3.836
10214SOL    HW242702   2.123   7.824   3.911
10215SOL     OW42703   1.925   7.928   4.493
10215SOL    HW142704   1.849   7.959   4.550
10215SOL    HW242705   2.011   7.934   4.545
10216SOL     OW42706   2.339   8.510   3.940
10216SOL    HW142707   2.439   8.517   3.946
10216SOL    HW242708   2.302   8.598   3.909
10217SOL     OW42709   2.966   8.099   3.736
10217SOL    HW142710   2.911   8.158   3.678
10217SOL    HW242711   3.030   8.047   3.679
10218SOL     OW42712   2.718   8.054   3.875
10218SOL    HW142713   2.808   8.062   3.831
10218SOL    HW242714   2.694   7.957   3.882
10219SOL     OW42715   3.173   7.538   4.153
10219SOL    HW142716   3.093   7.520   4.210
10219SOL    HW242717   3.190   7.636   4.149
10220SOL     OW42718   3.285   7.872   5.215
10220SOL    HW142719   3.229   7.901   5.292
10220SOL    HW242720   3.238   7.799   5.165
10221SOL     OW42721   1.949   7.465   3.873
10221SOL    HW142722   2.021   7.398   3.893
10221SOL    HW242723   1.984   7.557   3.891
10222SOL     OW42724   2.277   8.427   4.809
10222SOL    HW142725   2.232   8.360   4.868
10222SOL    HW242726   2.266   8.518   4.848
10223SOL     OW42727   3.490   8.451   3.899
10223SOL    HW142728   3.588   8.459   3.920
10223SOL    HW242729   3.479   8.434   3.801
10224SOL     OW42730   2.483   8.032   4.913
10224SOL    HW142731   2.535   8.081   4.983
10224SOL    HW242732   2.392   8.011   4.949
10225SOL     OW42733   2.651   8.394   5.213
10225SOL    HW142734   2.691   8.453   5.143
10225SOL    HW242735   2.556   8.420   5.228
10226SOL     OW42736   3.036   8.463   5.379
10226SOL    HW142737   2.952   8.410   5.389
10226SOL    HW242738   3.112   8.412   5.420
10227SOL     OW42739   2.925   7.630   4.313
10227SOL    HW142740   2.873   7.713   4.333
10227SOL    HW242741   2.905   7.561   4.382
10228SOL     OW42742   3.044   9.126   5.308
10228SOL    HW142743   2.974   9.150   5.241
10228SOL    HW242744   3.079   9.209   5.351
10229SOL     OW42745   2.588   7.521   4.620
10229SOL    HW142746   2.556   7.437   4.663
10229SOL    HW242747   2.687   7.515   4.607
10230SOL     OW42748   2.166   9.190   4.965
10230SOL    HW142749   2.145   9.129   4.888
10230SOL    HW242750   2.085   9.201   5.022
10231SOL     OW42751   2.830   8.617   4.560
10231SOL    HW142752   2.872   8.696   4.515
10231SOL    HW242753   2.898   8.569   4.615
10232SOL     OW42754   2.494   8.382   4.632
10232SOL    HW142755   2.508   8.288   4.603
10232SOL    HW242756   2.419   8.386   4.698
10233SOL     OW42757   1.853   8.333   4.769
10233SOL    HW142758   1.916   8.278   4.714
10233SOL    HW242759   1.759   8.312   4.742
10234SOL     OW42760   2.134   7.402   4.167
10234SOL    HW142761   2.186   7.486   4.185
10234SOL    HW242762   2.038   7.418   4.189
10235SOL     OW42763   2.556   8.061   5.414
10235SOL    HW142764   2.500   8.107   5.345
10235SOL    HW242765   2.651   8.055   5.382
10236SOL     OW42766   1.934   8.449   3.954
10236SOL    HW142767   1.958   8.354   3.934
10236SOL    HW242768   1.979   8.510   3.889
10237SOL     OW42769   3.590   7.646   4.545
10237SOL    HW142770   3.566   7.659   4.641
10237SOL    HW242771   3.689   7.649   4.535
10238SOL     OW42772   2.636   8.585   4.757
10238SOL    HW142773   2.585   8.508   4.719
10238SOL    HW242774   2.706   8.614   4.692
10239SOL     OW42775   3.065   7.985   3.988
10239SOL    HW142776   3.097   8.069   4.033
10239SOL    HW242777   3.031   8.007   3.897
10240SOL     OW42778   3.395   8.829   5.377
10240SOL    HW142779   3.354   8.747   5.415
10240SOL    HW242780   3.328   8.876   5.319
10241SOL     OW42781   2.123   8.283   4.992
10241SOL    HW142782   2.135   8.221   5.070
10241SOL    HW242783   2.049   8.347   5.011
10242SOL     OW42784   2.675   8.877   3.720
10242SOL    HW142785   2.625   8.931   3.787
10242SOL    HW242786   2.731   8.809   3.767
10243SOL     OW42787   2.488   9.029   4.783
10243SOL    HW142788   2.485   9.013   4.684
10243SOL    HW242789   2.485   8.942   4.831
10244SOL     OW42790   2.607   8.526   4.418
10244SOL    HW142791   2.686   8.570   4.461
10244SOL    HW242792   2.561   8.468   4.486
10245SOL     OW42793   2.798   8.869   4.203
10245SOL    HW142794   2.856   8.881   4.122
10245SOL    HW242795   2.732   8.796   4.185
10246SOL     OW42796   2.007   8.208   4.582
10246SOL    HW142797   2.094   8.185   4.540
10246SOL    HW242798   1.949   8.254   4.515
10247SOL     OW42799   1.917   8.385   5.472
10247SOL    HW142800   1.877   8.345   5.389
10247SOL    HW242801   1.913   8.318   5.546
10248SOL     OW42802   2.832   9.161   5.123
10248SOL    HW142803   2.791   9.103   5.193
10248SOL    HW242804   2.766   9.229   5.093
10249SOL     OW42805   3.003   8.481   4.735
10249SOL    HW142806   3.060   8.537   4.796
10249SOL    HW242807   2.958   8.410   4.788
10250SOL     OW42808   2.464   7.802   5.461
10250SOL    HW142809   2.506   7.746   5.390
10250SOL    HW242810   2.495   7.897   5.452
10251SOL     OW42811   2.384   8.261   4.054
10251SOL    HW142812   2.354   8.350   4.019
10251SOL    HW242813   2.308   8.215   4.099
10252SOL     OW42814   3.407   8.310   4.693
10252SOL    HW142815   3.456   8.384   4.648
10252SOL    HW242816   3.376   8.340   4.783
10253SOL     OW42817   3.180   7.640   5.090
10253SOL    HW142818   3.197   7.583   5.170
10253SOL    HW242819   3.119   7.590   5.027
10254SOL     OW42820   1.871   7.471   4.189
10254SOL    HW142821   1.777   7.438   4.176
10254SOL    HW242822   1.876   7.568   4.164
10255SOL     OW42823   3.045   7.538   5.481
10255SOL    HW142824   3.096   7.516   5.564
10255SOL    HW242825   2.992   7.621   5.496
10256SOL     OW42826   2.276   8.975   5.312
10256SOL    HW142827   2.217   9.036   5.366
10256SOL    HW242828   2.324   9.028   5.242
10257SOL     OW42829   3.615   8.823   5.216
10257SOL    HW142830   3.672   8.897   5.250
10257SOL    HW242831   3.532   8.816   5.271
10258SOL     OW42832   2.873   7.841   4.774
10258SOL    HW142833   2.946   7.895   4.816
10258SOL    HW242834   2.877   7.747   4.807
10259SOL     OW42835   2.305   8.876   4.360
10259SOL    HW142836   2.308   8.777   4.366
10259SOL    HW242837   2.211   8.908   4.369
10260SOL     OW42838   2.921   8.979   4.851
10260SOL    HW142839   2.874   9.016   4.931
10260SOL    HW242840   2.854   8.968   4.777
10261SOL     OW42841   2.121   9.149   5.468
10261SOL    HW142842   2.158   9.242   5.460
10261SOL    HW242843   2.117   9.123   5.564
10262SOL     OW42844   1.985   8.629   5.328
10262SOL    HW142845   1.953   8.552   5.383
10262SOL    HW242846   1.909   8.688   5.305
10263SOL     OW42847   2.058   9.018   4.763
10263SOL    HW142848   2.041   8.920   4.779
10263SOL    HW242849   2.102   9.029   4.673
10264SOL     OW42850   2.868   7.511   4.595
10264SOL    HW142851   2.958   7.554   4.606
10264SOL    HW242852   2.861   7.434   4.658
10265SOL     OW42853   2.932   8.595   4.085
10265SOL    HW142854   3.024   8.609   4.122
10265SOL    HW242855   2.885   8.525   4.138
10266SOL     OW42856   3.459   7.860   4.428
10266SOL    HW142857   3.481   7.941   4.484
10266SOL    HW242858   3.507   7.780   4.465
10267SOL     OW42859   2.614   8.522   3.931
10267SOL    HW142860   2.688   8.581   3.898
10267SOL    HW242861   2.624   8.431   3.891
10268SOL     OW42862   2.650   7.501   3.850
10268SOL    HW142863   2.732   7.445   3.846
10268SOL    HW242864   2.675   7.596   3.869
10269SOL     OW42865   2.351   7.879   4.415
10269SOL    HW142866   2.410   7.799   4.425
10269SOL    HW242867   2.398   7.949   4.362
10270SOL     OW42868   3.620   8.508   5.028
10270SOL    HW142869   3.614   8.601   4.994
10270SOL    HW242870   3.668   8.451   4.962
10271SOL     OW42871   2.053   8.621   3.780
10271SOL    HW142872   2.022   8.640   3.687
10271SOL    HW242873   2.127   8.684   3.803
10272SOL     OW42874   2.509   9.008   3.886
10272SOL    HW142875   2.455   9.090   3.866
10272SOL    HW242876   2.477   8.968   3.972
10273SOL     OW42877   3.199   8.510   5.163
10273SOL    HW142878   3.143   8.474   5.238
10273SOL    HW242879   3.169   8.602   5.139
10274SOL     OW42880   2.400   9.124   5.110
10274SOL    HW142881   2.467   9.197   5.097
10274SOL    HW242882   2.321   9.140   5.051
10275SOL     OW42883   2.056   7.947   5.406
10275SOL    HW142884   2.055   7.847   5.405
10275SOL    HW242885   2.120   7.978   5.476
10276SOL     OW42886   3.494   8.942   4.733
10276SOL    HW142887   3.427   9.007   4.769
10276SOL    HW242888   3.535   8.890   4.809
10277SOL     OW42889   1.837   8.332   4.392
10277SOL    HW142890   1.859   8.409   4.333
10277SOL    HW242891   1.740   8.336   4.417
10278SOL     OW42892   2.401   8.181   5.227
10278SOL    HW142893   2.310   8.143   5.212
10278SOL    HW242894   2.398   8.280   5.217
10279SOL     OW42895   3.505   8.529   4.556
10279SOL    HW142896   3.486   8.627   4.545
10279SOL    HW242897   3.471   8.479   4.477
10280SOL     OW42898   2.597   7.923   4.698
10280SOL    HW142899   2.691   7.896   4.717
10280SOL    HW242900   2.557   7.966   4.779
10281SOL     OW42901   2.485   8.770   4.893
10281SOL    HW142902   2.391   8.737   4.899
10281SOL    HW242903   2.540   8.706   4.840
10282SOL     OW42904   2.018   8.073   4.842
10282SOL    HW142905   2.049   8.154   4.890
10282SOL    HW242906   2.026   8.087   4.743
10283SOL     OW42907   2.183   8.748   5.178
10283SOL    HW142908   2.214   8.832   5.224
10283SOL    HW242909   2.111   8.706   5.232
10284SOL     OW42910   3.510   9.051   5.511
10284SOL    HW142911   3.476   8.962   5.481
10284SOL    HW242912   3.471   9.122   5.452
10285SOL     OW42913   3.205   8.621   4.160
10285SOL    HW142914   3.296   8.621   4.202
10285SOL    HW242915   3.213   8.602   4.062
10286SOL     OW42916   2.502   7.738   4.153
10286SOL    HW142917   2.405   7.718   4.140
10286SOL    HW242918   2.528   7.719   4.247
10287SOL     OW42919   3.464   7.432   4.421
10287SOL    HW142920   3.457   7.444   4.322
10287SOL    HW242921   3.511   7.510   4.462
10288SOL     OW42922   2.995   8.144   5.107
10288SOL    HW142923   3.093   8.144   5.087
10288SOL    HW242924   2.947   8.199   5.038
10289SOL     OW42925   2.513   8.127   4.521
10289SOL    HW142926   2.537   8.057   4.589
10289SOL    HW242927   2.541   8.097   4.430
10290SOL     OW42928   3.150   8.884   4.736
10290SOL    HW142929   3.062   8.908   4.776
10290SOL    HW242930   3.149   8.902   4.638
10291SOL     OW42931   3.186   7.822   4.422
10291SOL    HW142932   3.168   7.813   4.324
10291SOL    HW242933   3.283   7.843   4.436
10292SOL     OW42934   2.956   8.845   6.294
10292SOL    HW142935   3.050   8.877   6.288
10292SOL    HW242936   2.911   8.856   6.205
10293SOL     OW42937   3.452   8.665   6.084
10293SOL    HW142938   3.459   8.727   6.162
10293SOL    HW242939   3.543   8.632   6.059
10294SOL     OW42940   3.465   8.014   6.956
10294SOL    HW142941   3.384   7.970   6.995
10294SOL    HW242942   3.532   8.029   7.029
10295SOL     OW42943   2.265   7.659   5.575
10295SOL    HW142944   2.193   7.652   5.506
10295SOL    HW242945   2.341   7.713   5.539
10296SOL     OW42946   3.214   8.939   6.312
10296SOL    HW142947   3.222   9.034   6.341
10296SOL    HW242948   3.305   8.901   6.297
10297SOL     OW42949   3.137   7.400   6.847
10297SOL    HW142950   3.056   7.378   6.902
10297SOL    HW242951   3.137   7.345   6.764
10298SOL     OW42952   2.846   8.263   7.277
10298SOL    HW142953   2.837   8.201   7.199
10298SOL    HW242954   2.756   8.280   7.317
10299SOL     OW42955   2.446   8.875   5.974
10299SOL    HW142956   2.398   8.896   6.060
10299SOL    HW242957   2.514   8.804   5.989
10300SOL     OW42958   2.399   7.436   5.675
10300SOL    HW142959   2.497   7.447   5.658
10300SOL    HW242960   2.349   7.515   5.640
10301SOL     OW42961   3.404   8.430   7.074
10301SOL    HW142962   3.310   8.463   7.059
10301SOL    HW242963   3.464   8.470   7.005
10302SOL     OW42964   3.272   8.477   6.756
10302SOL    HW142965   3.217   8.474   6.840
10302SOL    HW242966   3.325   8.562   6.754
10303SOL     OW42967   2.847   8.630   7.016
10303SOL    HW142968   2.873   8.722   7.046
10303SOL    HW242969   2.860   8.622   6.917
10304SOL     OW42970   2.348   8.610   6.262
10304SOL    HW142971   2.295   8.561   6.331
10304SOL    HW242972   2.443   8.578   6.264
10305SOL     OW42973   2.568   7.992   6.083
10305SOL    HW142974   2.596   8.070   6.027
10305SOL    HW242975   2.543   7.915   6.024
10306SOL     OW42976   3.165   7.910   7.339
10306SOL    HW142977   3.265   7.910   7.338
10306SOL    HW242978   3.133   7.841   7.405
10307SOL     OW42979   2.270   8.879   5.760
10307SOL    HW142980   2.308   8.850   5.672
10307SOL    HW242981   2.338   8.869   5.832
10308SOL     OW42982   2.451   7.796   6.579
10308SOL    HW142983   2.522   7.864   6.561
10308SOL    HW242984   2.487   7.704   6.559
10309SOL     OW42985   2.192   8.150   6.034
10309SOL    HW142986   2.233   8.186   6.118
10309SOL    HW242987   2.096   8.127   6.052
10310SOL     OW42988   2.700   9.085   6.183
10310SOL    HW142989   2.748   9.008   6.140
10310SOL    HW242990   2.685   9.156   6.115
10311SOL     OW42991   3.641   8.989   5.951
10311SOL    HW142992   3.722   8.937   5.925
10311SOL    HW242993   3.614   9.048   5.874
10312SOL     OW42994   3.532   7.738   6.668
10312SOL    HW142995   3.556   7.835   6.681
10312SOL    HW242996   3.433   7.729   6.658
10313SOL     OW42997   2.859   7.680   5.963
10313SOL    HW142998   2.847   7.734   6.046
10313SOL    HW242999   2.804   7.596   5.969
10314SOL     OW43000   2.082   8.391   7.022
10314SOL    HW143001   2.171   8.395   7.068
10314SOL    HW243002   2.030   8.473   7.043
10315SOL     OW43003   2.355   8.106   5.620
10315SOL    HW143004   2.385   8.171   5.690
10315SOL    HW243005   2.428   8.093   5.553
10316SOL     OW43006   2.544   8.974   6.372
10316SOL    HW143007   2.603   9.021   6.305
10316SOL    HW243008   2.463   8.938   6.326
10317SOL     OW43009   2.833   8.068   7.083
10317SOL    HW143010   2.842   7.974   7.116
10317SOL    HW243011   2.907   8.088   7.018
10318SOL     OW43012   3.478   8.820   6.320
10318SOL    HW143013   3.482   8.838   6.419
10318SOL    HW243014   3.539   8.884   6.273
10319SOL     OW43015   2.173   8.630   6.046
10319SOL    HW143016   2.227   8.625   6.130
10319SOL    HW243017   2.227   8.595   5.970
10320SOL     OW43018   3.068   7.698   5.790
10320SOL    HW143019   3.142   7.748   5.835
10320SOL    HW243020   2.995   7.679   5.856
10321SOL     OW43021   2.331   7.990   6.742
10321SOL    HW143022   2.374   7.909   6.703
10321SOL    HW243023   2.236   7.995   6.712
10322SOL     OW43024   3.281   8.187   6.836
10322SOL    HW143025   3.306   8.283   6.829
10322SOL    HW243026   3.354   8.137   6.884
10323SOL     OW43027   2.239   7.677   5.991
10323SOL    HW143028   2.201   7.720   6.072
10323SOL    HW243029   2.189   7.709   5.910
10324SOL     OW43030   3.381   9.129   6.860
10324SOL    HW143031   3.307   9.120   6.794
10324SOL    HW243032   3.469   9.120   6.812
10325SOL     OW43033   3.588   8.006   6.709
10325SOL    HW143034   3.687   8.021   6.711
10325SOL    HW243035   3.551   8.013   6.801
10326SOL     OW43036   3.633   9.108   6.723
10326SOL    HW143037   3.673   9.141   6.808
10326SOL    HW243038   3.706   9.085   6.659
10327SOL     OW43039   2.784   7.843   6.177
10327SOL    HW143040   2.847   7.888   6.240
10327SOL    HW243041   2.718   7.910   6.143
10328SOL     OW43042   3.084   8.364   5.671
10328SOL    HW143043   3.105   8.330   5.762
10328SOL    HW243044   3.038   8.292   5.618
10329SOL     OW43045   2.851   7.707   7.396
10329SOL    HW143046   2.935   7.728   7.445
10329SOL    HW243047   2.772   7.730   7.454
10330SOL     OW43048   3.579   8.041   5.846
10330SOL    HW143049   3.561   7.983   5.767
10330SOL    HW243050   3.577   7.985   5.929
10331SOL     OW43051   2.845   9.146   5.683
10331SOL    HW143052   2.891   9.089   5.615
10331SOL    HW243053   2.856   9.105   5.774
10332SOL     OW43054   3.424   8.075   6.497
10332SOL    HW143055   3.409   8.174   6.499
10332SOL    HW243056   3.485   8.049   6.571
10333SOL     OW43057   2.509   8.538   7.295
10333SOL    HW143058   2.478   8.629   7.322
10333SOL    HW243059   2.547   8.491   7.375
10334SOL     OW43060   3.192   7.425   6.454
10334SOL    HW143061   3.146   7.513   6.448
10334SOL    HW243062   3.283   7.432   6.414
10335SOL     OW43063   3.598   7.604   7.307
10335SOL    HW143064   3.557   7.620   7.397
10335SOL    HW243065   3.576   7.511   7.277
10336SOL     OW43066   1.937   8.103   6.123
10336SOL    HW143067   1.944   8.037   6.198
10336SOL    HW243068   1.902   8.190   6.158
10337SOL     OW43069   2.101   7.562   6.374
10337SOL    HW143070   2.165   7.603   6.440
10337SOL    HW243071   2.123   7.466   6.361
10338SOL     OW43072   2.889   8.231   6.453
10338SOL    HW143073   2.968   8.286   6.427
10338SOL    HW243074   2.893   8.143   6.406
10339SOL     OW43075   2.072   8.873   5.950
10339SOL    HW143076   2.095   8.783   5.988
10339SOL    HW243077   2.132   8.892   5.872
10340SOL     OW43078   3.340   8.747   6.767
10340SOL    HW143079   3.315   8.786   6.679
10340SOL    HW243080   3.265   8.758   6.832
10341SOL     OW43081   2.065   8.973   6.213
10341SOL    HW143082   1.968   8.984   6.237
10341SOL    HW243083   2.074   8.954   6.115
10342SOL     OW43084   3.602   8.774   6.827
10342SOL    HW143085   3.622   8.808   6.919
10342SOL    HW243086   3.503   8.770   6.814
10343SOL     OW43087   2.845   8.558   6.747
10343SOL    HW143088   2.853   8.458   6.750
10343SOL    HW243089   2.756   8.583   6.708
10344SOL     OW43090   1.935   8.211   5.706
10344SOL    HW143091   2.012   8.148   5.714
10344SOL    HW243092   1.860   8.179   5.764
10345SOL     OW43093   3.436   8.268   5.935
10345SOL    HW143094   3.488   8.186   5.909
10345SOL    HW243095   3.457   8.341   5.870
10346SOL     OW43096   2.717   9.201   6.555
10346SOL    HW143097   2.770   9.120   6.529
10346SOL    HW243098   2.643   9.174   6.616
10347SOL     OW43099   2.642   8.312   5.637
10347SOL    HW143100   2.656   8.213   5.646
10347SOL    HW243101   2.565   8.329   5.576
10348SOL     OW43102   3.201   7.887   5.968
10348SOL    HW143103   3.141   7.938   5.907
10348SOL    HW243104   3.295   7.920   5.958
10349SOL     OW43105   1.902   7.559   6.883
10349SOL    HW143106   1.941   7.635   6.830
10349SOL    HW243107   1.803   7.558   6.872
10350SOL     OW43108   2.862   8.286   6.724
10350SOL    HW143109   2.857   8.258   6.628
10350SOL    HW243110   2.780   8.254   6.772
10351SOL     OW43111   3.575   7.858   6.048
10351SOL    HW143112   3.672   7.845   6.071
10351SOL    HW243113   3.521   7.866   6.132
10352SOL     OW43114   2.799   8.942   6.498
10352SOL    HW143115   2.863   8.912   6.426
10352SOL    HW243116   2.705   8.936   6.463
10353SOL     OW43117   2.707   7.787   5.759
10353SOL    HW143118   2.615   7.776   5.796
10353SOL    HW243119   2.774   7.758   5.827
10354SOL     OW43120   2.809   8.704   5.679
10354SOL    HW143121   2.864   8.678   5.759
10354SOL    HW243122   2.865   8.701   5.597
10355SOL     OW43123   3.630   9.020   6.217
10355SOL    HW143124   3.574   9.098   6.246
10355SOL    HW243125   3.626   9.012   6.117
10356SOL     OW43126   3.046   8.327   6.138
10356SOL    HW143127   3.068   8.352   6.233
10356SOL    HW243128   2.951   8.351   6.119
10357SOL     OW43129   3.129   8.383   6.395
10357SOL    HW143130   3.215   8.346   6.431
10357SOL    HW243131   3.101   8.463   6.449
10358SOL     OW43132   2.192   8.472   6.437
10358SOL    HW143133   2.097   8.501   6.428
10358SOL    HW243134   2.214   8.458   6.534
10359SOL     OW43135   2.786   8.393   6.067
10359SOL    HW143136   2.738   8.323   6.015
10359SOL    HW243137   2.726   8.425   6.141
10360SOL     OW43138   3.106   8.784   6.899
10360SOL    HW143139   3.129   8.850   6.970
10360SOL    HW243140   3.034   8.821   6.841
10361SOL     OW43141   1.898   7.739   5.949
10361SOL    HW143142   1.965   7.755   5.877
10361SOL    HW243143   1.943   7.744   6.038
10362SOL     OW43144   3.558   9.174   5.758
10362SOL    HW143145   3.631   9.239   5.738
10362SOL    HW243146   3.531   9.127   5.673
10363SOL     OW43147   2.672   8.229   6.924
10363SOL    HW143148   2.659   8.314   6.977
10363SOL    HW243149   2.719   8.162   6.981
10364SOL     OW43150   1.903   9.224   6.950
10364SOL    HW143151   1.856   9.312   6.945
10364SOL    HW243152   1.888   9.183   7.040
10365SOL     OW43153   2.638   8.200   5.925
10365SOL    HW143154   2.548   8.232   5.896
10365SOL    HW243155   2.687   8.162   5.847
10366SOL     OW43156   2.207   7.867   6.459
10366SOL    HW143157   2.238   7.871   6.364
10366SOL    HW243158   2.284   7.842   6.517
10367SOL     OW43159   2.131   9.169   5.747
10367SOL    HW143160   2.226   9.183   5.722
10367SOL    HW243161   2.123   9.166   5.847
10368SOL     OW43162   3.188   9.093   6.667
10368SOL    HW143163   3.209   9.135   6.579
10368SOL    HW243164   3.164   8.996   6.653
10369SOL     OW43165   1.921   8.554   6.488
10369SOL    HW143166   1.832   8.551   6.441
10369SOL    HW243167   1.920   8.491   6.565
10370SOL     OW43168   2.662   7.490   5.939
10370SOL    HW143169   2.611   7.404   5.937
10370SOL    HW243170   2.599   7.565   5.955
10371SOL     OW43171   1.903   8.545   6.046
10371SOL    HW143172   1.991   8.584   6.070
10371SOL    HW243173   1.903   8.519   5.949
10372SOL     OW43174   3.431   7.687   7.098
10372SOL    HW143175   3.376   7.771   7.104
10372SOL    HW243176   3.492   7.682   7.178
10373SOL     OW43177   3.093   7.684   6.451
10373SOL    HW143178   3.115   7.741   6.371
10373SOL    HW243179   3.153   7.709   6.527
10374SOL     OW43180   3.444   7.412   7.146
10374SOL    HW143181   3.432   7.358   7.063
10374SOL    HW243182   3.419   7.507   7.128
10375SOL     OW43183   2.565   7.697   6.252
10375SOL    HW143184   2.564   7.641   6.335
10375SOL    HW243185   2.655   7.739   6.241
10376SOL     OW43186   3.184   8.023   6.637
10376SOL    HW143187   3.250   8.038   6.563
10376SOL    HW243188   3.205   8.083   6.713
10377SOL     OW43189   2.413   8.792   7.362
10377SOL    HW143190   2.365   8.839   7.288
10377SOL    HW243191   2.462   8.859   7.418
10378SOL     OW43192   2.330   8.422   7.121
10378SOL    HW143193   2.362   8.454   7.032
10378SOL    HW243194   2.385   8.463   7.193
10379SOL     OW43195   1.957   8.781   6.644
10379SOL    HW143196   1.948   8.707   6.577
10379SOL    HW243197   1.879   8.777   6.707
10380SOL     OW43198   2.944   7.974   6.352
10380SOL    HW143199   3.034   7.947   6.317
10380SOL    HW243200   2.937   7.948   6.449
10381SOL     OW43201   3.634   8.022   7.202
10381SOL    HW143202   3.633   8.113   7.161
10381SOL    HW243203   3.727   7.998   7.228
10382SOL     OW43204   3.254   7.760   6.662
10382SOL    HW143205   3.227   7.856   6.660
10382SOL    HW243206   3.235   7.722   6.752
10383SOL     OW43207   3.434   7.884   7.337
10383SOL    HW143208   3.511   7.930   7.294
10383SOL    HW243209   3.467   7.819   7.405
10384SOL     OW43210   3.163   8.258   5.908
10384SOL    HW143211   3.117   8.284   5.993
10384SOL    HW243212   3.262   8.262   5.922
10385SOL     OW43213   3.392   8.358   6.191
10385SOL    HW143214   3.405   8.330   6.096
10385SOL    HW243215   3.294   8.367   6.210
10386SOL     OW43216   3.631   8.251   7.054
10386SOL    HW143217   3.551   8.310   7.048
10386SOL    HW243218   3.713   8.306   7.070
10387SOL     OW43219   3.554   7.757   5.771
10387SOL    HW143220   3.548   7.768   5.870
10387SOL    HW243221   3.619   7.684   5.749
10388SOL     OW43222   2.575   8.946   6.941
10388SOL    HW143223   2.493   9.001   6.959
10388SOL    HW243224   2.550   8.868   6.882
10389SOL     OW43225   1.878   9.093   7.192
10389SOL    HW143226   1.964   9.101   7.242
10389SOL    HW243227   1.802   9.091   7.257
10390SOL     OW43228   2.031   7.741   6.183
10390SOL    HW143229   1.999   7.819   6.237
10390SOL    HW243230   2.057   7.667   6.245
10391SOL     OW43231   3.209   8.987   7.056
10391SOL    HW143232   3.136   9.041   7.099
10391SOL    HW243233   3.262   9.046   6.995
10392SOL     OW43234   2.145   8.035   5.775
10392SOL    HW143235   2.222   8.057   5.715
10392SOL    HW243236   2.163   8.069   5.867
10393SOL     OW43237   3.627   7.628   6.909
10393SOL    HW143238   3.555   7.653   6.974
10393SOL    HW243239   3.599   7.653   6.817
10394SOL     OW43240   2.236   9.182   6.280
10394SOL    HW143241   2.172   9.104   6.276
10394SOL    HW243242   2.254   9.214   6.187
10395SOL     OW43243   2.209   8.734   6.746
10395SOL    HW143244   2.202   8.746   6.845
10395SOL    HW243245   2.122   8.759   6.703
10396SOL     OW43246   2.622   8.674   6.032
10396SOL    HW143247   2.632   8.616   5.951
10396SOL    HW243248   2.618   8.616   6.114
10397SOL     OW43249   2.266   8.241   6.289
10397SOL    HW143250   2.255   8.327   6.339
10397SOL    HW243251   2.353   8.198   6.314
10398SOL     OW43252   2.103   7.765   5.765
10398SOL    HW143253   2.167   7.727   5.698
10398SOL    HW243254   2.110   7.865   5.765
10399SOL     OW43255   1.955   7.941   6.352
10399SOL    HW143256   1.891   7.999   6.403
10399SOL    HW243257   2.037   7.925   6.406
10400SOL     OW43258   2.349   8.534   5.850
10400SOL    HW143259   2.448   8.547   5.845
10400SOL    HW243260   2.307   8.564   5.764
10401SOL     OW43261   2.971   8.126   5.544
10401SOL    HW143262   2.917   8.183   5.482
10401SOL    HW243263   3.036   8.071   5.491
10402SOL     OW43264   2.737   8.061   5.701
10402SOL    HW143265   2.823   8.075   5.653
10402SOL    HW243266   2.724   7.964   5.718
10403SOL     OW43267   3.247   7.893   7.069
10403SOL    HW143268   3.202   7.912   7.156
10403SOL    HW243269   3.189   7.834   7.013
10404SOL     OW43270   1.951   7.521   5.727
10404SOL    HW143271   2.019   7.448   5.734
10404SOL    HW243272   1.997   7.610   5.725
10405SOL     OW43273   2.214   8.464   6.712
10405SOL    HW143274   2.286   8.428   6.772
10405SOL    HW243275   2.209   8.563   6.723
10406SOL     OW43276   3.502   8.440   5.738
10406SOL    HW143277   3.598   8.467   5.749
10406SOL    HW243278   3.482   8.430   5.640
10407SOL     OW43279   2.520   8.185   6.705
10407SOL    HW143280   2.566   8.206   6.791
10407SOL    HW243281   2.443   8.123   6.723
10408SOL     OW43282   2.646   8.461   7.067
10408SOL    HW143283   2.725   8.520   7.053
10408SOL    HW243284   2.600   8.486   7.153
10409SOL     OW43285   3.032   8.464   7.238
10409SOL    HW143286   2.949   8.409   7.242
10409SOL    HW243287   3.111   8.407   7.261
10410SOL     OW43288   2.580   7.558   6.491
10410SOL    HW143289   2.550   7.463   6.492
10410SOL    HW243290   2.678   7.563   6.505
10411SOL     OW43291   2.144   9.202   6.819
10411SOL    HW143292   2.126   9.143   6.740
10411SOL    HW243293   2.061   9.208   6.875
10412SOL     OW43294   2.840   8.624   6.405
10412SOL    HW143295   2.877   8.704   6.358
10412SOL    HW243296   2.910   8.585   6.465
10413SOL     OW43297   2.537   8.349   6.479
10413SOL    HW143298   2.539   8.273   6.413
10413SOL    HW243299   2.524   8.312   6.571
10414SOL     OW43300   1.935   8.397   6.713
10414SOL    HW143301   2.032   8.415   6.730
10414SOL    HW243302   1.922   8.299   6.699
10415SOL     OW43303   2.159   7.412   6.021
10415SOL    HW143304   2.204   7.501   6.013
10415SOL    HW243305   2.062   7.425   6.041
10416SOL     OW43306   1.957   8.478   5.779
10416SOL    HW143307   1.963   8.382   5.753
10416SOL    HW243308   2.027   8.530   5.731
10417SOL     OW43309   3.601   7.684   6.402
10417SOL    HW143310   3.596   7.692   6.502
10417SOL    HW243311   3.697   7.690   6.373
10418SOL     OW43312   2.622   8.599   6.582
10418SOL    HW143313   2.581   8.513   6.552
10418SOL    HW243314   2.693   8.627   6.517
10419SOL     OW43315   3.065   8.036   5.790
10419SOL    HW143316   3.093   8.120   5.837
10419SOL    HW243317   3.030   8.060   5.699
10420SOL     OW43318   3.376   8.837   7.218
10420SOL    HW143319   3.339   8.751   7.253
10420SOL    HW243320   3.308   8.881   7.159
10421SOL     OW43321   2.127   8.173   6.860
10421SOL    HW143322   2.217   8.138   6.884
10421SOL    HW243323   2.105   8.251   6.920
10422SOL     OW43324   2.633   8.899   5.581
10422SOL    HW143325   2.613   8.965   5.653
10422SOL    HW243326   2.698   8.830   5.616
10423SOL     OW43327   2.504   9.037   6.636
10423SOL    HW143328   2.508   9.011   6.540
10423SOL    HW243329   2.497   8.955   6.693
10424SOL     OW43330   2.627   8.513   6.271
10424SOL    HW143331   2.707   8.559   6.309
10424SOL    HW243332   2.591   8.448   6.338
10425SOL     OW43333   2.819   8.870   6.061
10425SOL    HW143334   2.878   8.884   5.982
10425SOL    HW243335   2.754   8.796   6.041
10426SOL     OW43336   2.008   8.226   6.417
10426SOL    HW143337   2.097   8.219   6.372
10426SOL    HW243338   1.944   8.274   6.358
10427SOL     OW43339   2.788   9.110   6.922
10427SOL    HW143340   2.716   9.040   6.932
10427SOL    HW243341   2.746   9.201   6.922
10428SOL     OW43342   3.063   8.572   6.590
10428SOL    HW143343   2.984   8.579   6.650
10428SOL    HW243344   3.141   8.536   6.641
10429SOL     OW43345   2.376   8.261   5.857
10429SOL    HW143346   2.363   8.360   5.855
10429SOL    HW243347   2.312   8.221   5.922
10430SOL     OW43348   3.376   8.346   6.532
10430SOL    HW143349   3.429   8.415   6.483
10430SOL    HW243350   3.343   8.385   6.618
10431SOL     OW43351   3.216   7.654   6.909
10431SOL    HW143352   3.290   7.648   6.976
10431SOL    HW243353   3.181   7.563   6.890
10432SOL     OW43354   1.889   7.469   6.030
10432SOL    HW143355   1.799   7.464   6.073
10432SOL    HW243356   1.898   7.556   5.982
10433SOL     OW43357   3.043   7.510   7.317
10433SOL    HW143358   3.100   7.509   7.399
10433SOL    HW243359   2.966   7.573   7.330
10434SOL     OW43360   2.270   8.960   7.181
10434SOL    HW143361   2.210   9.018   7.237
10434SOL    HW243362   2.312   9.016   7.109
10435SOL     OW43363   3.625   8.840   7.095
10435SOL    HW143364   3.666   8.928   7.120
10435SOL    HW243365   3.535   8.832   7.137
10436SOL     OW43366   2.914   7.936   6.622
10436SOL    HW143367   3.002   7.981   6.638
10436SOL    HW243368   2.906   7.857   6.684
10437SOL     OW43369   2.328   8.879   6.229
10437SOL    HW143370   2.333   8.780   6.244
10437SOL    HW243371   2.232   8.908   6.232
10438SOL     OW43372   2.914   8.921   6.753
10438SOL    HW143373   2.866   8.988   6.809
10438SOL    HW243374   2.874   8.920   6.661
10439SOL     OW43375   2.109   9.132   7.337
10439SOL    HW143376   2.139   9.228   7.333
10439SOL    HW243377   2.111   9.101   7.432
10440SOL     OW43378   1.929   8.627   7.065
10440SOL    HW143379   1.868   8.568   7.013
10440SOL    HW243380   1.885   8.716   7.080
10441SOL     OW43381   2.043   9.040   6.605
10441SOL    HW143382   2.017   8.944   6.617
10441SOL    HW243383   2.094   9.050   6.519
10442SOL     OW43384   2.854   7.553   6.514
10442SOL    HW143385   2.929   7.612   6.486
10442SOL    HW243386   2.889   7.461   6.533
10443SOL     OW43387   2.920   8.600   5.917
10443SOL    HW143388   3.009   8.618   5.959
10443SOL    HW243389   2.874   8.525   5.965
10444SOL     OW43390   3.448   7.886   6.296
10444SOL    HW143391   3.442   7.960   6.362
10444SOL    HW243392   3.498   7.809   6.336
10445SOL     OW43393   2.618   8.540   5.789
10445SOL    HW143394   2.682   8.606   5.750
10445SOL    HW243395   2.632   8.451   5.747
10446SOL     OW43396   2.669   7.504   5.659
10446SOL    HW143397   2.689   7.476   5.753
10446SOL    HW243398   2.687   7.602   5.649
10447SOL     OW43399   2.341   7.859   6.222
10447SOL    HW143400   2.415   7.794   6.241
10447SOL    HW243401   2.378   7.940   6.178
10448SOL     OW43402   2.447   8.512   6.887
10448SOL    HW143403   2.527   8.490   6.942
10448SOL    HW243404   2.454   8.606   6.853
10449SOL     OW43405   3.575   8.508   6.883
10449SOL    HW143406   3.594   8.604   6.863
10449SOL    HW243407   3.621   8.450   6.816
10450SOL     OW43408   2.540   9.059   5.792
10450SOL    HW143409   2.463   9.110   5.752
10450SOL    HW243410   2.505   8.997   5.863
10451SOL     OW43411   3.153   8.531   6.998
10451SOL    HW143412   3.094   8.505   7.075
10451SOL    HW243413   3.127   8.622   6.965
10452SOL     OW43414   2.367   9.130   6.978
10452SOL    HW143415   2.437   9.201   6.967
10452SOL    HW243416   2.290   9.150   6.917
10453SOL     OW43417   3.523   8.895   6.576
10453SOL    HW143418   3.534   8.989   6.606
10453SOL    HW243419   3.551   8.833   6.649
10454SOL     OW43420   1.839   8.338   6.219
10454SOL    HW143421   1.867   8.415   6.162
10454SOL    HW243422   1.740   8.339   6.230
10455SOL     OW43423   3.502   8.540   6.375
10455SOL    HW143424   3.488   8.637   6.356
10455SOL    HW243425   3.468   8.485   6.298
10456SOL     OW43426   2.642   7.995   6.546
10456SOL    HW143427   2.739   7.978   6.565
10456SOL    HW243428   2.608   8.067   6.605
10457SOL     OW43429   2.481   8.768   6.749
10457SOL    HW143430   2.382   8.759   6.734
10457SOL    HW243431   2.530   8.712   6.682
10458SOL     OW43432   1.951   8.120   6.663
10458SOL    HW143433   2.023   8.134   6.731
10458SOL    HW243434   1.982   8.154   6.574
10459SOL     OW43435   2.174   8.760   7.010
10459SOL    HW143436   2.207   8.824   7.079
10459SOL    HW243437   2.096   8.709   7.046
10460SOL     OW43438   3.471   9.075   7.330
10460SOL    HW143439   3.440   8.983   7.306
10460SOL    HW243440   3.445   9.139   7.259
10461SOL     OW43441   3.188   8.631   6.001
10461SOL    HW143442   3.280   8.638   6.039
10461SOL    HW243443   3.194   8.612   5.903
10462SOL     OW43444   2.509   7.721   5.984
10462SOL    HW143445   2.411   7.705   5.973
10462SOL    HW243446   2.534   7.708   6.080
10463SOL     OW43447   3.433   7.476   6.337
10463SOL    HW143448   3.445   7.461   6.239
10463SOL    HW243449   3.494   7.550   6.366
10464SOL     OW43450   3.016   8.134   6.897
10464SOL    HW143451   3.114   8.152   6.892
10464SOL    HW243452   2.968   8.195   6.833
10465SOL     OW43453   2.522   8.121   6.326
10465SOL    HW143454   2.565   8.068   6.400
10465SOL    HW243455   2.545   8.080   6.238
10466SOL     OW43456   3.178   8.828   6.560
10466SOL    HW143457   3.121   8.747   6.564
10466SOL    HW243458   3.182   8.862   6.466
10467SOL     OW43459   3.176   7.866   6.249
10467SOL    HW143460   3.164   7.866   6.150
10467SOL    HW243461   3.273   7.874   6.270
10468SOL     OW43462   2.939   8.845   8.129
10468SOL    HW143463   3.034   8.873   8.138
10468SOL    HW243464   2.907   8.862   8.036
10469SOL     OW43465   3.492   8.660   7.937
10469SOL    HW143466   3.496   8.721   8.017
10469SOL    HW243467   3.582   8.621   7.921
10470SOL     OW43468   3.459   8.043   8.758
10470SOL    HW143469   3.394   7.990   8.812
10470SOL    HW243470   3.518   8.096   8.818
10471SOL     OW43471   2.197   7.588   7.447
10471SOL    HW143472   2.242   7.595   7.358
10471SOL    HW243473   2.246   7.522   7.504
10472SOL     OW43474   3.199   8.928   8.187
10472SOL    HW143475   3.214   9.024   8.212
10472SOL    HW243476   3.287   8.886   8.165
10473SOL     OW43477   3.039   7.454   8.713
10473SOL    HW143478   2.964   7.398   8.746
10473SOL    HW243479   3.092   7.402   8.645
10474SOL     OW43480   2.827   8.267   9.129
10474SOL    HW143481   2.805   8.210   9.050
10474SOL    HW243482   2.743   8.288   9.180
10475SOL     OW43483   2.472   8.875   7.798
10475SOL    HW143484   2.424   8.895   7.884
10475SOL    HW243485   2.542   8.804   7.815
10476SOL     OW43486   3.450   8.427   8.920
10476SOL    HW143487   3.354   8.448   8.901
10476SOL    HW243488   3.506   8.453   8.842
10477SOL     OW43489   3.271   8.435   8.607
10477SOL    HW143490   3.235   8.438   8.700
10477SOL    HW243491   3.308   8.525   8.583
10478SOL     OW43492   2.857   8.754   8.814
10478SOL    HW143493   2.769   8.800   8.817
10478SOL    HW243494   2.847   8.667   8.765
10479SOL     OW43495   2.341   8.606   8.072
10479SOL    HW143496   2.296   8.546   8.137
10479SOL    HW243497   2.439   8.587   8.070
10480SOL     OW43498   2.598   8.053   7.949
10480SOL    HW143499   2.632   8.125   7.888
10480SOL    HW243500   2.526   8.002   7.903
10481SOL     OW43501   3.117   7.917   9.129
10481SOL    HW143502   3.209   7.893   9.159
10481SOL    HW243503   3.056   7.839   9.142
10482SOL     OW43504   2.291   8.764   7.618
10482SOL    HW143505   2.318   8.760   7.522
10482SOL    HW243506   2.362   8.810   7.671
10483SOL     OW43507   2.390   7.708   8.403
10483SOL    HW143508   2.447   7.790   8.407
10483SOL    HW243509   2.438   7.636   8.354
10484SOL     OW43510   2.666   9.099   7.978
10484SOL    HW143511   2.729   9.031   7.941
10484SOL    HW243512   2.632   9.157   7.904
10485SOL     OW43513   3.634   9.004   7.779
10485SOL    HW143514   3.721   8.959   7.761
10485SOL    HW243515   3.601   9.047   7.695
10486SOL     OW43516   3.516   7.710   8.495
10486SOL    HW143517   3.556   7.800   8.511
10486SOL    HW243518   3.416   7.718   8.497
10487SOL     OW43519   2.917   7.785   7.738
10487SOL    HW143520   2.963   7.872   7.751
10487SOL    HW243521   2.925   7.730   7.821
10488SOL     OW43522   2.068   8.444   8.963
10488SOL    HW143523   2.156   8.476   8.997
10488SOL    HW243524   2.022   8.390   9.034
10489SOL     OW43525   2.515   9.028   8.188
10489SOL    HW143526   2.576   9.065   8.118
10489SOL    HW243527   2.450   8.964   8.146
10490SOL     OW43528   2.818   8.032   8.963
10490SOL    HW143529   2.861   7.960   9.017
10490SOL    HW243530   2.885   8.070   8.899
10491SOL     OW43531   3.468   8.826   8.177
10491SOL    HW143532   3.474   8.851   8.273
10491SOL    HW243533   3.522   8.890   8.122
10492SOL     OW43534   2.179   8.712   7.860
10492SOL    HW143535   2.236   8.657   7.922
10492SOL    HW243536   2.219   8.712   7.769
10493SOL     OW43537   3.089   7.732   7.533
10493SOL    HW143538   3.145   7.650   7.547
10493SOL    HW243539   3.033   7.748   7.615
10494SOL     OW43540   2.224   7.887   8.685
10494SOL    HW143541   2.225   7.788   8.672
10494SOL    HW243542   2.146   7.926   8.637
10495SOL     OW43543   3.237   8.164   8.651
10495SOL    HW143544   3.253   8.261   8.630
10495SOL    HW243545   3.322   8.124   8.687
10496SOL     OW43546   2.216   7.677   7.814
10496SOL    HW143547   2.180   7.681   7.907
10496SOL    HW243548   2.180   7.753   7.761
10497SOL     OW43549   3.407   9.120   8.702
10497SOL    HW143550   3.328   9.131   8.641
10497SOL    HW243551   3.490   9.111   8.647
10498SOL     OW43552   3.611   7.960   8.549
10498SOL    HW143553   3.704   7.994   8.560
10498SOL    HW243554   3.555   7.990   8.626
10499SOL     OW43555   3.654   9.110   8.552
10499SOL    HW143556   3.690   9.144   8.638
10499SOL    HW243557   3.729   9.098   8.487
10500SOL     OW43558   2.782   7.878   8.048
10500SOL    HW143559   2.848   7.919   8.111
10500SOL    HW243560   2.727   7.950   8.006
10501SOL     OW43561   3.061   8.389   7.556
10501SOL    HW143562   3.088   8.341   7.639
10501SOL    HW243563   3.056   8.323   7.480
10502SOL     OW43564   2.931   7.719   9.170
10502SOL    HW143565   2.950   7.701   9.267
10502SOL    HW243566   2.840   7.686   9.147
10503SOL     OW43567   3.584   8.083   7.769
10503SOL    HW143568   3.535   7.997   7.782
10503SOL    HW243569   3.655   8.092   7.839
10504SOL     OW43570   2.652   7.418   9.097
10504SOL    HW143571   2.669   7.321   9.078
10504SOL    HW243572   2.657   7.434   9.195
10505SOL     OW43573   3.538   8.062   8.307
10505SOL    HW143574   3.503   8.155   8.318
10505SOL    HW243575   3.559   8.023   8.396
10506SOL     OW43576   2.947   8.719   9.104
10506SOL    HW143577   2.985   8.627   9.104
10506SOL    HW243578   2.900   8.737   9.018
10507SOL     OW43579   2.621   8.528   9.110
10507SOL    HW143580   2.568   8.611   9.126
10507SOL    HW243581   2.617   8.470   9.191
10508SOL     OW43582   3.244   7.356   8.268
10508SOL    HW143583   3.197   7.445   8.274
10508SOL    HW243584   3.331   7.367   8.220
10509SOL     OW43585   3.576   7.587   9.154
10509SOL    HW143586   3.537   7.616   9.241
10509SOL    HW243587   3.579   7.487   9.151
10510SOL     OW43588   1.879   7.981   7.906
10510SOL    HW143589   1.908   7.957   7.999
10510SOL    HW243590   1.823   8.064   7.910
10511SOL     OW43591   2.200   7.577   8.224
10511SOL    HW143592   2.258   7.631   8.285
10511SOL    HW243593   2.255   7.506   8.180
10512SOL     OW43594   2.223   7.616   8.619
10512SOL    HW143595   2.203   7.518   8.621
10512SOL    HW243596   2.285   7.636   8.544
10513SOL     OW43597   2.859   8.204   8.304
10513SOL    HW143598   2.813   8.245   8.225
10513SOL    HW243599   2.903   8.118   8.276
10514SOL     OW43600   2.032   8.934   7.789
10514SOL    HW143601   2.073   8.845   7.809
10514SOL    HW243602   2.081   8.976   7.712
10515SOL     OW43603   3.313   8.711   8.605
10515SOL    HW143604   3.268   8.746   8.523
10515SOL    HW243605   3.254   8.724   8.684
10516SOL     OW43606   2.087   9.044   8.034
10516SOL    HW143607   2.029   9.125   8.038
10516SOL    HW243608   2.067   8.993   7.950
10517SOL     OW43609   3.580   8.750   8.644
10517SOL    HW143610   3.599   8.785   8.736
10517SOL    HW243611   3.482   8.733   8.635
10518SOL     OW43612   2.813   8.520   8.669
10518SOL    HW143613   2.849   8.431   8.643
10518SOL    HW243614   2.753   8.555   8.598
10519SOL     OW43615   3.421   8.302   7.801
10519SOL    HW143616   3.478   8.221   7.791
10519SOL    HW243617   3.449   8.371   7.734
10520SOL     OW43618   2.794   9.130   8.488
10520SOL    HW143619   2.782   9.059   8.419
10520SOL    HW243620   2.705   9.157   8.524
10521SOL     OW43621   2.604   8.268   7.407
10521SOL    HW143622   2.635   8.197   7.470
10521SOL    HW243623   2.516   8.241   7.368
10522SOL     OW43624   3.213   7.829   7.837
10522SOL    HW143625   3.170   7.899   7.781
10522SOL    HW243626   3.313   7.839   7.833
10523SOL     OW43627   2.147   8.061   8.884
10523SOL    HW143628   2.178   7.982   8.830
10523SOL    HW243629   2.098   8.030   8.964
10524SOL     OW43630   2.032   7.664   8.830
10524SOL    HW143631   2.099   7.645   8.758
10524SOL    HW243632   1.940   7.646   8.797
10525SOL     OW43633   2.845   8.260   8.575
10525SOL    HW143634   2.852   8.244   8.476
10525SOL    HW243635   2.765   8.212   8.611
10526SOL     OW43636   3.487   7.839   7.858
10526SOL    HW143637   3.573   7.791   7.842
10526SOL    HW243638   3.473   7.849   7.956
10527SOL     OW43639   2.753   8.942   8.306
10527SOL    HW143640   2.821   8.906   8.241
10527SOL    HW243641   2.667   8.959   8.258
10528SOL     OW43642   2.675   7.799   7.619
10528SOL    HW143643   2.604   7.755   7.673
10528SOL    HW243644   2.763   7.787   7.664
10529SOL     OW43645   3.611   9.013   8.049
10529SOL    HW143646   3.572   9.098   8.083
10529SOL    HW243647   3.612   9.015   7.949
10530SOL     OW43648   3.041   8.304   8.025
10530SOL    HW143649   3.096   8.302   8.109
10530SOL    HW243650   2.945   8.291   8.049
10531SOL     OW43651   2.697   9.011   9.029
10531SOL    HW143652   2.660   8.949   8.960
10531SOL    HW243653   2.694   8.968   9.119
10532SOL     OW43654   3.201   8.330   8.244
10532SOL    HW143655   3.282   8.310   8.299
10532SOL    HW243656   3.146   8.400   8.289
10533SOL     OW43657   2.209   8.425   8.252
10533SOL    HW143658   2.124   8.421   8.199
10533SOL    HW243659   2.187   8.433   8.349
10534SOL     OW43660   2.768   8.304   8.052
10534SOL    HW143661   2.750   8.272   7.959
10534SOL    HW243662   2.719   8.390   8.068
10535SOL     OW43663   3.132   8.751   8.807
10535SOL    HW143664   3.170   8.838   8.839
10535SOL    HW243665   3.032   8.753   8.814
10536SOL     OW43666   1.880   7.646   7.838
10536SOL    HW143667   1.917   7.656   7.746
10536SOL    HW243668   1.948   7.675   7.905
10537SOL     OW43669   3.512   9.190   7.581
10537SOL    HW143670   3.599   9.238   7.570
10537SOL    HW243671   3.491   9.140   7.496
10538SOL     OW43672   2.658   8.147   8.760
10538SOL    HW143673   2.653   8.238   8.802
10538SOL    HW243674   2.711   8.086   8.820
10539SOL     OW43675   1.995   9.237   8.746
10539SOL    HW143676   1.925   9.307   8.755
10539SOL    HW243677   1.978   9.163   8.811
10540SOL     OW43678   2.710   8.240   7.783
10540SOL    HW143679   2.737   8.332   7.755
10540SOL    HW243680   2.717   8.178   7.705
10541SOL     OW43681   2.178   7.921   8.349
10541SOL    HW143682   2.223   7.928   8.260
10541SOL    HW243683   2.222   7.849   8.403
10542SOL     OW43684   2.160   9.134   7.621
10542SOL    HW143685   2.245   9.150   7.570
10542SOL    HW243686   2.168   9.174   7.712
10543SOL     OW43687   3.186   9.136   8.540
10543SOL    HW143688   3.211   9.146   8.444
10543SOL    HW243689   3.120   9.061   8.549
10544SOL     OW43690   2.667   7.450   7.798
10544SOL    HW143691   2.612   7.377   7.758
10544SOL    HW243692   2.614   7.535   7.798
10545SOL     OW43693   3.428   7.674   8.937
10545SOL    HW143694   3.388   7.765   8.941
10545SOL    HW243695   3.481   7.657   9.020
10546SOL     OW43696   3.144   7.615   8.298
10546SOL    HW143697   3.155   7.681   8.224
10546SOL    HW243698   3.183   7.652   8.382
10547SOL     OW43699   3.208   7.482   7.558
10547SOL    HW143700   3.262   7.399   7.551
10547SOL    HW243701   3.128   7.466   7.616
10548SOL     OW43702   3.434   7.392   8.949
10548SOL    HW143703   3.423   7.351   8.859
10548SOL    HW243704   3.420   7.491   8.944
10549SOL     OW43705   2.536   7.755   8.072
10549SOL    HW143706   2.530   7.677   8.134
10549SOL    HW243707   2.628   7.793   8.074
10550SOL     OW43708   3.111   7.989   8.488
10550SOL    HW143709   3.099   8.034   8.400
10550SOL    HW243710   3.153   8.053   8.553
10551SOL     OW43711   3.436   7.434   7.851
10551SOL    HW143712   3.457   7.399   7.760
10551SOL    HW243713   3.345   7.475   7.851
10552SOL     OW43714   2.448   8.771   9.150
10552SOL    HW143715   2.405   8.837   9.089
10552SOL    HW243716   2.528   8.812   9.194
10553SOL     OW43717   2.308   8.539   9.055
10553SOL    HW143718   2.352   8.513   8.970
10553SOL    HW243719   2.345   8.626   9.088
10554SOL     OW43720   2.969   7.961   8.230
10554SOL    HW143721   3.049   7.915   8.190
10554SOL    HW243722   2.934   7.905   8.305
10555SOL     OW43723   3.598   7.993   9.110
10555SOL    HW143724   3.590   8.066   9.041
10555SOL    HW243725   3.695   7.975   9.128
10556SOL     OW43726   3.242   7.750   8.518
10556SOL    HW143727   3.201   7.840   8.504
10556SOL    HW243728   3.224   7.718   8.611
10557SOL     OW43729   3.374   7.852   9.193
10557SOL    HW143730   3.455   7.903   9.164
10557SOL    HW243731   3.399   7.786   9.263
10558SOL     OW43732   3.152   8.261   7.782
10558SOL    HW143733   3.109   8.277   7.871
10558SOL    HW243734   3.250   8.278   7.789
10559SOL     OW43735   3.421   8.361   8.068
10559SOL    HW143736   3.415   8.348   7.969
10559SOL    HW243737   3.332   8.343   8.110
10560SOL     OW43738   3.608   8.199   8.921
10560SOL    HW143739   3.549   8.280   8.916
10560SOL    HW243740   3.703   8.228   8.933
10561SOL     OW43741   3.454   7.667   7.536
10561SOL    HW143742   3.483   7.693   7.628
10561SOL    HW243743   3.373   7.608   7.541
10562SOL     OW43744   2.600   8.863   8.812
10562SOL    HW143745   2.547   8.947   8.794
10562SOL    HW243746   2.558   8.787   8.763
10563SOL     OW43747   2.013   7.695   9.100
10563SOL    HW143748   2.022   7.684   9.001
10563SOL    HW243749   1.925   7.658   9.130
10564SOL     OW43750   2.054   7.708   8.039
10564SOL    HW143751   2.021   7.793   8.080
10564SOL    HW243752   2.105   7.656   8.107
10565SOL     OW43753   3.246   8.980   8.888
10565SOL    HW143754   3.183   9.047   8.928
10565SOL    HW243755   3.306   9.027   8.822
10566SOL     OW43756   2.073   7.905   7.725
10566SOL    HW143757   2.122   7.989   7.699
10566SOL    HW243758   2.004   7.928   7.794
10567SOL     OW43759   3.610   7.606   8.737
10567SOL    HW143760   3.542   7.636   8.804
10567SOL    HW243761   3.579   7.630   8.645
10568SOL     OW43762   2.285   9.189   8.168
10568SOL    HW143763   2.232   9.142   8.097
10568SOL    HW243764   2.377   9.149   8.172
10569SOL     OW43765   2.208   8.704   8.600
10569SOL    HW143766   2.193   8.727   8.696
10569SOL    HW243767   2.171   8.777   8.542
10570SOL     OW43768   3.010   8.973   9.204
10570SOL    HW143769   2.987   8.881   9.170
10570SOL    HW243770   3.031   9.032   9.126
10571SOL     OW43771   2.655   8.672   7.859
10571SOL    HW143772   2.697   8.609   7.794
10571SOL    HW243773   2.643   8.625   7.947
10572SOL     OW43774   2.320   8.194   8.119
10572SOL    HW143775   2.281   8.276   8.161
10572SOL    HW243776   2.409   8.175   8.160
10573SOL     OW43777   1.982   7.693   7.578
10573SOL    HW143778   2.059   7.658   7.523
10573SOL    HW243779   2.006   7.782   7.616
10574SOL     OW43780   1.953   7.932   8.171
10574SOL    HW143781   1.871   7.956   8.223
10574SOL    HW243782   2.033   7.936   8.231
10575SOL     OW43783   2.977   8.085   7.443
10575SOL    HW143784   2.939   8.153   7.380
10575SOL    HW243785   3.045   8.030   7.395
10576SOL     OW43786   2.723   8.068   7.564
10576SOL    HW143787   2.815   8.070   7.523
10576SOL    HW243788   2.695   7.974   7.578
10577SOL     OW43789   3.192   7.558   7.869
10577SOL    HW143790   3.098   7.537   7.894
10577SOL    HW243791   3.202   7.656   7.856
10578SOL     OW43792   3.267   7.906   8.891
10578SOL    HW143793   3.212   7.935   8.969
10578SOL    HW243794   3.218   7.836   8.839
10579SOL     OW43795   1.905   7.427   7.571
10579SOL    HW143796   1.981   7.397   7.628
10579SOL    HW243797   1.910   7.526   7.557
10580SOL     OW43798   2.134   8.446   8.517
10580SOL    HW143799   2.131   8.386   8.596
10580SOL    HW243800   2.159   8.538   8.546
10581SOL     OW43801   3.513   8.456   7.597
10581SOL    HW143802   3.612   8.463   7.606
10581SOL    HW243803   3.486   8.478   7.504
10582SOL     OW43804   2.473   8.006   8.611
10582SOL    HW143805   2.525   8.063   8.674
10582SOL    HW243806   2.388   7.976   8.656
10583SOL     OW43807   2.682   8.394   8.879
10583SOL    HW143808   2.740   8.447   8.817
10583SOL    HW243809   2.675   8.443   8.966
10584SOL     OW43810   3.022   8.454   9.081
10584SOL    HW143811   2.943   8.394   9.094
10584SOL    HW243812   3.104   8.410   9.118
10585SOL     OW43813   2.922   7.655   7.977
10585SOL    HW143814   2.867   7.735   8.001
10585SOL    HW243815   2.916   7.588   8.052
10586SOL     OW43816   3.064   9.150   8.999
10586SOL    HW143817   2.983   9.168   8.943
10586SOL    HW243818   3.099   9.236   9.035
10587SOL     OW43819   2.521   7.533   8.240
10587SOL    HW143820   2.466   7.465   8.191
10587SOL    HW243821   2.602   7.489   8.278
10588SOL     OW43822   2.232   9.132   8.609
10588SOL    HW143823   2.190   9.120   8.519
10588SOL    HW243824   2.166   9.173   8.672
10589SOL     OW43825   2.844   8.618   8.253
10589SOL    HW143826   2.881   8.698   8.206
10589SOL    HW243827   2.919   8.568   8.297
10590SOL     OW43828   2.518   8.377   8.313
10590SOL    HW143829   2.549   8.284   8.293
10590SOL    HW243830   2.422   8.375   8.339
10591SOL     OW43831   1.867   8.287   8.507
10591SOL    HW143832   1.933   8.363   8.504
10591SOL    HW243833   1.916   8.201   8.517
10592SOL     OW43834   2.112   7.415   7.759
10592SOL    HW143835   2.163   7.500   7.770
10592SOL    HW243836   2.052   7.401   7.837
10593SOL     OW43837   2.534   8.027   9.067
10593SOL    HW143838   2.484   8.093   9.011
10593SOL    HW243839   2.630   8.026   9.039
10594SOL     OW43840   3.587   7.639   8.237
10594SOL    HW143841   3.566   7.652   8.333
10594SOL    HW243842   3.686   7.633   8.224
10595SOL     OW43843   2.650   8.580   8.453
10595SOL    HW143844   2.605   8.500   8.412
10595SOL    HW243845   2.717   8.617   8.390
10596SOL     OW43846   3.065   8.018   7.699
10596SOL    HW143847   3.096   8.105   7.738
10596SOL    HW243848   3.033   8.033   7.606
10597SOL     OW43849   3.391   8.819   9.059
10597SOL    HW143850   3.347   8.741   9.103
10597SOL    HW243851   3.325   8.866   9.000
10598SOL     OW43852   2.102   8.285   8.739
10598SOL    HW143853   2.116   8.198   8.787
10598SOL    HW243854   2.088   8.358   8.805
10599SOL     OW43855   2.501   9.141   8.449
10599SOL    HW143856   2.497   9.083   8.368
10599SOL    HW243857   2.416   9.132   8.500
10600SOL     OW43858   2.621   8.537   8.115
10600SOL    HW143859   2.703   8.579   8.155
10600SOL    HW243860   2.576   8.479   8.183
10601SOL     OW43861   2.826   8.894   7.881
10601SOL    HW143862   2.884   8.909   7.801
10601SOL    HW243863   2.771   8.812   7.866
10602SOL     OW43864   1.926   8.313   9.149
10602SOL    HW143865   1.848   8.296   9.089
10602SOL    HW243866   1.917   8.257   9.232
10603SOL     OW43867   2.831   9.184   8.853
10603SOL    HW143868   2.790   9.118   8.916
10603SOL    HW243869   2.760   9.245   8.818
10604SOL     OW43870   3.072   8.524   8.393
10604SOL    HW143871   3.094   8.621   8.398
10604SOL    HW243872   3.098   8.480   8.479
10605SOL     OW43873   2.433   7.774   9.118
10605SOL    HW143874   2.485   7.714   9.057
10605SOL    HW243875   2.465   7.868   9.108
10606SOL     OW43876   3.437   8.323   8.390
10606SOL    HW143877   3.475   8.404   8.345
10606SOL    HW243878   3.404   8.348   8.481
10607SOL     OW43879   3.190   7.669   8.773
10607SOL    HW143880   3.263   7.639   8.835
10607SOL    HW243881   3.127   7.593   8.757
10608SOL     OW43882   1.913   7.397   7.955
10608SOL    HW143883   1.855   7.325   7.916
10608SOL    HW243884   1.880   7.486   7.924
10609SOL     OW43885   3.124   7.513   9.141
10609SOL    HW143886   3.169   7.507   9.230
10609SOL    HW243887   3.061   7.591   9.141
10610SOL     OW43888   2.325   8.966   9.000
10610SOL    HW143889   2.272   9.031   9.055
10610SOL    HW243890   2.373   9.016   8.928
10611SOL     OW43891   3.617   8.829   8.903
10611SOL    HW143892   3.663   8.914   8.928
10611SOL    HW243893   3.535   8.818   8.960
10612SOL     OW43894   2.873   7.843   8.464
10612SOL    HW143895   2.949   7.898   8.499
10612SOL    HW243896   2.884   7.748   8.493
10613SOL     OW43897   2.330   8.885   8.054
10613SOL    HW143898   2.325   8.785   8.061
10613SOL    HW243899   2.238   8.922   8.047
10614SOL     OW43900   2.982   8.954   8.584
10614SOL    HW143901   2.947   8.900   8.661
10614SOL    HW243902   2.912   9.019   8.555
10615SOL     OW43903   2.181   9.147   9.151
10615SOL    HW143904   2.193   9.246   9.156
10615SOL    HW243905   2.157   9.112   9.242
10616SOL     OW43906   1.974   8.691   9.027
10616SOL    HW143907   1.996   8.599   8.998
10616SOL    HW243908   1.875   8.704   9.026
10617SOL     OW43909   2.108   9.124   8.364
10617SOL    HW143910   2.036   9.069   8.322
10617SOL    HW243911   2.174   9.150   8.293
10618SOL     OW43912   2.901   7.520   8.212
10618SOL    HW143913   2.987   7.546   8.256
10618SOL    HW243914   2.839   7.480   8.280
10619SOL     OW43915   2.982   8.547   7.911
10619SOL    HW143916   3.066   8.600   7.900
10619SOL    HW243917   3.002   8.462   7.959
10620SOL     OW43918   3.455   7.860   8.133
10620SOL    HW143919   3.481   7.939   8.188
10620SOL    HW243920   3.502   7.778   8.166
10621SOL     OW43921   2.812   8.488   7.711
10621SOL    HW143922   2.875   8.513   7.785
10621SOL    HW243923   2.864   8.475   7.627
10622SOL     OW43924   2.304   7.916   8.112
10622SOL    HW143925   2.389   7.868   8.093
10622SOL    HW243926   2.315   8.014   8.093
10623SOL     OW43927   2.425   8.459   8.824
10623SOL    HW143928   2.518   8.427   8.845
10623SOL    HW243929   2.430   8.535   8.759
10624SOL     OW43930   3.604   8.480   8.701
10624SOL    HW143931   3.605   8.577   8.677
10624SOL    HW243932   3.664   8.429   8.639
10625SOL     OW43933   2.505   8.981   7.537
10625SOL    HW143934   2.463   9.070   7.522
10625SOL    HW243935   2.507   8.961   7.635
10626SOL     OW43936   3.188   8.491   8.860
10626SOL    HW143937   3.127   8.458   8.931
10626SOL    HW243938   3.170   8.588   8.844
10627SOL     OW43939   2.443   9.091   8.782
10627SOL    HW143940   2.496   9.175   8.781
10627SOL    HW243941   2.366   9.099   8.719
10628SOL     OW43942   2.029   7.971   9.116
10628SOL    HW143943   2.027   7.871   9.119
10628SOL    HW243944   2.105   8.005   9.172
10629SOL     OW43945   3.505   8.911   8.429
10629SOL    HW143946   3.545   8.999   8.454
10629SOL    HW243947   3.527   8.843   8.499
10630SOL     OW43948   2.382   8.200   8.927
10630SOL    HW143949   2.292   8.157   8.915
10630SOL    HW243950   2.381   8.290   8.883
10631SOL     OW43951   3.506   8.555   8.241
10631SOL    HW143952   3.481   8.650   8.223
10631SOL    HW243953   3.474   8.497   8.167
10632SOL     OW43954   2.602   7.908   8.399
10632SOL    HW143955   2.697   7.885   8.420
10632SOL    HW243956   2.559   7.949   8.479
10633SOL     OW43957   2.479   8.669   8.653
10633SOL    HW143958   2.386   8.686   8.620
10633SOL    HW243959   2.537   8.645   8.575
10634SOL     OW43960   2.044   8.064   8.547
10634SOL    HW143961   2.094   8.139   8.590
10634SOL    HW243962   2.095   8.032   8.467
10635SOL     OW43963   2.169   8.788   8.855
10635SOL    HW143964   2.229   8.852   8.904
10635SOL    HW243965   2.097   8.757   8.917
10636SOL     OW43966   3.488   9.059   9.155
10636SOL    HW143967   3.454   8.966   9.140
10636SOL    HW243968   3.458   9.119   9.080
10637SOL     OW43969   3.229   8.651   7.864
10637SOL    HW143970   3.324   8.649   7.892
10637SOL    HW243971   3.223   8.632   7.766
10638SOL     OW43972   2.498   7.681   7.808
10638SOL    HW143973   2.399   7.671   7.797
10638SOL    HW243974   2.518   7.707   7.903
10639SOL     OW43975   3.469   7.415   8.123
10639SOL    HW143976   3.451   7.429   8.025
10639SOL    HW243977   3.512   7.496   8.161
10640SOL     OW43978   2.987   8.138   8.780
10640SOL    HW143979   3.085   8.138   8.762
10640SOL    HW243980   2.939   8.187   8.706
10641SOL     OW43981   2.559   8.118   8.221
10641SOL    HW143982   2.577   8.041   8.282
10641SOL    HW243983   2.591   8.096   8.129
10642SOL     OW43984   3.130   8.791   8.415
10642SOL    HW143985   3.069   8.847   8.471
10642SOL    HW243986   3.151   8.838   8.330
10643SOL     OW43987   3.182   7.825   8.118
10643SOL    HW143988   3.165   7.816   8.020
10643SOL    HW243989   3.280   7.842   8.134
10644SOL     OW43990   2.971   8.841   0.015
10644SOL    HW143991   3.038   8.768   0.001
10644SOL    HW243992   2.915   8.853   9.933
10645SOL     OW43993   3.478   8.623   9.791
10645SOL    HW143994   3.501   8.688   9.864
10645SOL    HW243995   3.562   8.582   9.756
10646SOL     OW43996   2.236   7.639   9.245
10646SOL    HW143997   2.151   7.656   9.195
10646SOL    HW243998   2.311   7.691   9.204
10647SOL     OW43999   2.419   8.874   9.620
10647SOL    HW144000   2.368   8.897   9.703
10647SOL    HW244001   2.494   8.812   9.643
10648SOL     OW44002   2.397   7.439   9.355
10648SOL    HW144003   2.493   7.468   9.358
10648SOL    HW244004   2.341   7.513   9.318
10649SOL     OW44005   2.282   8.613   9.900
10649SOL    HW144006   2.215   8.599   9.973
10649SOL    HW244007   2.372   8.582   9.931
10650SOL     OW44008   2.592   7.986   9.748
10650SOL    HW144009   2.609   8.080   9.716
10650SOL    HW244010   2.582   7.926   9.669
10651SOL     OW44011   2.291   8.786   9.387
10651SOL    HW144012   2.349   8.797   9.306
10651SOL    HW244013   2.334   8.831   9.465
10652SOL     OW44014   2.134   8.193   9.674
10652SOL    HW144015   2.097   8.117   9.729
10652SOL    HW244016   2.070   8.269   9.677
10653SOL     OW44017   2.855   9.158   9.842
10653SOL    HW144018   2.852   9.059   9.833
10653SOL    HW244019   2.786   9.200   9.783
10654SOL     OW44020   3.737   9.052   9.699
10654SOL    HW144021   3.784   8.971   9.665
10654SOL    HW244022   3.731   9.120   9.626
10655SOL     OW44023   2.907   7.692   9.671
10655SOL    HW144024   2.883   7.763   9.737
10655SOL    HW244025   2.937   7.610   9.720
10656SOL     OW44026   2.298   8.089   9.227
10656SOL    HW144027   2.305   8.189   9.232
10656SOL    HW244028   2.378   8.053   9.179
10657SOL     OW44029   3.567   8.807   9.975
10657SOL    HW144030   3.617   8.827   0.059
10657SOL    HW244031   3.538   8.893   9.933
10658SOL     OW44032   2.147   8.655   9.665
10658SOL    HW144033   2.195   8.643   9.752
10658SOL    HW244034   2.197   8.607   9.593
10659SOL     OW44035   3.000   7.647   9.418
10659SOL    HW144036   3.077   7.582   9.420
10659SOL    HW244037   2.975   7.672   9.511
10660SOL     OW44038   2.259   7.654   9.697
10660SOL    HW144039   2.213   7.565   9.701
10660SOL    HW244040   2.219   7.709   9.624
10661SOL     OW44041   3.622   9.122   0.271
10661SOL    HW144042   3.631   9.189   0.345
10661SOL    HW244043   3.696   9.135   0.205
10662SOL     OW44044   2.814   7.866   9.859
10662SOL    HW144045   2.879   7.920   9.913
10662SOL    HW244046   2.740   7.925   9.828
10663SOL     OW44047   3.099   8.350   9.393
10663SOL    HW144048   3.115   8.313   9.484
10663SOL    HW244049   3.059   8.279   9.335
10664SOL     OW44050   3.591   8.041   9.574
10664SOL    HW144051   3.539   7.956   9.562
10664SOL    HW244052   3.651   8.032   9.653
10665SOL     OW44053   2.841   9.144   9.353
10665SOL    HW144054   2.889   9.090   9.284
10665SOL    HW244055   2.848   9.099   9.442
10666SOL     OW44056   1.916   8.044   9.788
10666SOL    HW144057   1.894   8.000   9.875
10666SOL    HW244058   1.900   8.142   9.796
10667SOL     OW44059   2.044   8.909   9.594
10667SOL    HW144060   2.081   8.817   9.610
10667SOL    HW244061   2.097   8.954   9.522
10668SOL     OW44062   2.043   8.997   9.862
10668SOL    HW144063   1.949   8.987   9.894
10668SOL    HW244064   2.046   8.989   9.763
10669SOL     OW44065   2.341   8.359   9.260
10669SOL    HW144066   2.323   8.415   9.179
10669SOL    HW244067   2.323   8.413   9.342
10670SOL     OW44068   1.917   8.183   9.390
10670SOL    HW144069   1.996   8.123   9.400
10670SOL    HW244070   1.843   8.150   9.449
10671SOL     OW44071   3.433   8.261   9.634
10671SOL    HW144072   3.488   8.181   9.609
10671SOL    HW244073   3.448   8.334   9.567
10672SOL     OW44074   2.607   8.294   9.296
10672SOL    HW144075   2.628   8.203   9.330
10672SOL    HW244076   2.508   8.302   9.282
10673SOL     OW44077   3.229   7.790   9.632
10673SOL    HW144078   3.178   7.857   9.579
10673SOL    HW244079   3.327   7.803   9.617
10674SOL     OW44080   3.508   7.772   9.637
10674SOL    HW144081   3.606   7.753   9.629
10674SOL    HW244082   3.483   7.775   9.733
10675SOL     OW44083   2.692   7.773   9.514
10675SOL    HW144084   2.621   7.728   9.567
10675SOL    HW244085   2.782   7.753   9.554
10676SOL     OW44086   2.827   8.687   9.374
10676SOL    HW144087   2.882   8.668   9.455
10676SOL    HW244088   2.886   8.687   9.293
10677SOL     OW44089   3.501   9.045   9.840
10677SOL    HW144090   3.435   9.087   9.778
10677SOL    HW244091   3.591   9.042   9.796
10678SOL     OW44092   2.981   8.242   9.855
10678SOL    HW144093   3.057   8.296   9.889
10678SOL    HW244094   2.909   8.302   9.821
10679SOL     OW44095   3.192   8.386   9.932
10679SOL    HW144096   3.159   8.406   0.024
10679SOL    HW244097   3.201   8.472   9.881
10680SOL     OW44098   2.783   8.411   9.757
10680SOL    HW144099   2.735   8.342   9.702
10680SOL    HW244100   2.717   8.458   9.816
10681SOL     OW44101   1.914   7.788   9.644
10681SOL    HW144102   1.991   7.772   9.582
10681SOL    HW244103   1.933   7.867   9.702
10682SOL     OW44104   3.505   9.221   9.375
10682SOL    HW144105   3.596   9.214   9.417
10682SOL    HW244106   3.496   9.151   9.304
10683SOL     OW44107   2.642   8.223   9.616
10683SOL    HW144108   2.546   8.247   9.603
10683SOL    HW244109   2.674   8.168   9.538
10684SOL     OW44110   2.155   9.128   9.433
10684SOL    HW144111   2.246   9.163   9.409
10684SOL    HW244112   2.129   9.161   9.524
10685SOL     OW44113   2.635   7.394   9.657
10685SOL    HW144114   2.622   7.366   9.563
10685SOL    HW244115   2.596   7.485   9.670
10686SOL     OW44116   1.882   8.554   9.687
10686SOL    HW144117   1.962   8.610   9.706
10686SOL    HW244118   1.885   8.523   9.592
10687SOL     OW44119   3.224   7.467   9.411
10687SOL    HW144120   3.221   7.369   9.392
10687SOL    HW244121   3.223   7.482   9.510
10688SOL     OW44122   2.642   7.674   9.947
10688SOL    HW144123   2.669   7.621   0.027
10688SOL    HW244124   2.717   7.734   9.920
10689SOL     OW44125   3.475   7.412   9.685
10689SOL    HW144126   3.494   7.369   9.596
10689SOL    HW244127   3.384   7.453   9.683
10690SOL     OW44128   3.157   8.227   9.630
10690SOL    HW144129   3.103   8.229   9.715
10690SOL    HW244130   3.253   8.246   9.651
10691SOL     OW44131   3.449   8.293   9.904
10691SOL    HW144132   3.453   8.283   9.805
10691SOL    HW244133   3.356   8.319   9.931
10692SOL     OW44134   3.436   7.657   9.383
10692SOL    HW144135   3.463   7.688   9.474
10692SOL    HW244136   3.363   7.590   9.391
10693SOL     OW44137   2.145   8.033   9.442
10693SOL    HW144138   2.211   8.054   9.370
10693SOL    HW244139   2.163   8.091   9.522
10694SOL     OW44140   2.219   9.166   9.995
10694SOL    HW144141   2.148   9.117   9.946
10694SOL    HW244142   2.309   9.128   9.971
10695SOL     OW44143   2.611   8.694   9.696
10695SOL    HW144144   2.630   8.635   9.618
10695SOL    HW244145   2.595   8.639   9.778
10696SOL     OW44146   2.133   7.764   9.478
10696SOL    HW144147   2.169   7.713   9.401
10696SOL    HW244148   2.138   7.862   9.459
10697SOL     OW44149   1.833   7.961   0.033
10697SOL    HW144150   1.856   8.039   0.090
10697SOL    HW244151   1.843   7.877   0.085
10698SOL     OW44152   2.348   8.537   9.479
10698SOL    HW144153   2.448   8.538   9.483
10698SOL    HW244154   2.316   8.623   9.440
10699SOL     OW44155   2.975   8.099   9.279
10699SOL    HW144156   2.925   8.164   9.222
10699SOL    HW244157   3.033   8.042   9.220
10700SOL     OW44158   2.720   8.052   9.410
10700SOL    HW144159   2.813   8.062   9.374
10700SOL    HW244160   2.703   7.956   9.431
10701SOL     OW44161   3.220   7.523   9.675
10701SOL    HW144162   3.145   7.495   9.736
10701SOL    HW244163   3.222   7.622   9.667
10702SOL     OW44164   1.902   7.431   9.404
10702SOL    HW144165   1.992   7.389   9.399
10702SOL    HW244166   1.888   7.470   9.495
10703SOL     OW44167   3.487   8.431   9.428
10703SOL    HW144168   3.581   8.464   9.435
10703SOL    HW244169   3.465   8.413   9.331
10704SOL     OW44170   2.996   7.482   9.828
10704SOL    HW144171   3.004   7.526   9.917
10704SOL    HW244172   2.930   7.407   9.834
10705SOL     OW44173   2.108   7.421   9.682
10705SOL    HW144174   2.141   7.397   9.773
10705SOL    HW244175   2.012   7.448   9.688
10706SOL     OW44176   1.923   8.465   9.434
10706SOL    HW144177   1.941   8.371   9.403
10706SOL    HW244178   1.976   8.529   9.379
10707SOL     OW44179   3.611   7.566   0.078
10707SOL    HW144180   3.544   7.608   0.140
10707SOL    HW244181   3.688   7.531   0.131
10708SOL     OW44182   3.111   7.994   9.499
10708SOL    HW144183   3.129   8.076   9.553
10708SOL    HW244184   3.056   8.019   9.419
10709SOL     OW44185   2.657   8.888   9.279
10709SOL    HW144186   2.635   8.958   9.347
10709SOL    HW244187   2.722   8.823   9.318
10710SOL     OW44188   2.583   8.535   9.923
10710SOL    HW144189   2.591   8.618   9.978
10710SOL    HW244190   2.599   8.455   9.981
10711SOL     OW44191   2.824   8.878   9.784
10711SOL    HW144192   2.870   8.892   9.696
10711SOL    HW244193   2.743   8.821   9.770
10712SOL     OW44194   2.380   8.285   9.592
10712SOL    HW144195   2.360   8.378   9.559
10712SOL    HW244196   2.296   8.245   9.629
10713SOL     OW44197   1.850   7.515   9.659
10713SOL    HW144198   1.757   7.489   9.686
10713SOL    HW244199   1.863   7.613   9.676
10714SOL     OW44200   2.293   8.889   9.866
10714SOL    HW144201   2.294   8.790   9.881
10714SOL    HW244202   2.199   8.922   9.872
10715SOL     OW44203   2.942   8.598   9.618
10715SOL    HW144204   3.032   8.601   9.661
10715SOL    HW244205   2.885   8.531   9.665
10716SOL     OW44206   3.480   7.787   9.912
10716SOL    HW144207   3.537   7.857   9.955
10716SOL    HW244208   3.488   7.701   9.962
10717SOL     OW44209   2.622   8.532   9.462
10717SOL    HW144210   2.695   8.591   9.428
10717SOL    HW244211   2.637   8.438   9.431
10718SOL     OW44212   2.669   7.500   9.364
10718SOL    HW144213   2.742   7.433   9.376
10718SOL    HW244214   2.696   7.587   9.405
10719SOL     OW44215   2.446   7.865   9.950
10719SOL    HW144216   2.510   7.793   9.974
10719SOL    HW244217   2.484   7.920   9.876
10720SOL     OW44218   2.066   8.649   9.293
10720SOL    HW144219   2.041   8.674   9.199
10720SOL    HW244220   2.139   8.709   9.325
10721SOL     OW44221   2.549   9.063   9.474
10721SOL    HW144222   2.484   9.129   9.436
10721SOL    HW244223   2.501   8.998   9.533
10722SOL     OW44224   1.857   8.307   9.807
10722SOL    HW144225   1.869   8.399   9.768
10722SOL    HW244226   1.771   8.304   9.858
10723SOL     OW44227   3.217   8.582   9.718
10723SOL    HW144228   3.308   8.600   9.753
10723SOL    HW244229   3.220   8.575   9.618
10724SOL     OW44230   2.530   7.650   9.697
10724SOL    HW144231   2.430   7.654   9.700
10724SOL    HW244232   2.566   7.656   9.790
10725SOL     OW44233   3.511   7.340   9.949
10725SOL    HW144234   3.489   7.361   9.854
10725SOL    HW244235   3.552   7.420   9.992
10726SOL     OW44236   3.206   7.880   9.897
10726SOL    HW144237   3.191   7.847   9.804
10726SOL    HW244238   3.298   7.856   9.927
10727SOL     OW44239   3.489   9.846   1.443
10727SOL    HW144240   3.399   9.810   1.466
10727SOL    HW244241   3.556   9.813   1.509
10728SOL     OW44242   2.105   9.624   9.914
10728SOL    HW144243   2.094   9.543   9.972
10728SOL    HW244244   2.189   9.671   9.938
10729SOL     OW44245   3.034   9.308   1.335
10729SOL    HW144246   2.956   9.259   1.373
10729SOL    HW244247   3.081   9.249   1.269
10730SOL     OW44248   2.481   9.243   0.149
10730SOL    HW144249   2.567   9.286   0.123
10730SOL    HW244250   2.404   9.298   0.116
10731SOL     OW44251   2.568   9.886   0.548
10731SOL    HW144252   2.615   9.973   0.560
10731SOL    HW244253   2.490   9.898   0.486
10732SOL     OW44254   3.123   9.752   1.762
10732SOL    HW144255   3.205   9.729   1.815
10732SOL    HW244256   3.064   9.672   1.757
10733SOL     OW44257   2.411   9.507   1.027
10733SOL    HW144258   2.464   9.592   1.023
10733SOL    HW244259   2.464   9.433   0.987
10734SOL     OW44260   3.530   9.562   1.116
10734SOL    HW144261   3.554   9.658   1.128
10734SOL    HW244262   3.431   9.553   1.106
10735SOL     OW44263   2.940   9.556   0.371
10735SOL    HW144264   3.019   9.613   0.394
10735SOL    HW244265   2.918   9.498   0.449
10736SOL     OW44266   2.310   9.961   0.116
10736SOL    HW144267   2.216   9.988   0.096
10736SOL    HW244268   2.333   9.879   0.065
10737SOL     OW44269   2.780   9.911   1.616
10737SOL    HW144270   2.804   9.818   1.645
10737SOL    HW244271   2.859   9.970   1.629
10738SOL     OW44272   3.036   9.526   0.096
10738SOL    HW144273   3.105   9.457   0.114
10738SOL    HW244274   2.985   9.545   0.181
10739SOL     OW44275   2.245   9.818   1.145
10739SOL    HW144276   2.231   9.721   1.164
10739SOL    HW244277   2.160   9.868   1.160
10740SOL     OW44278   3.326   0.019   1.300
10740SOL    HW144279   3.371   0.088   1.243
10740SOL    HW244280   3.396   9.965   1.348
10741SOL     OW44281   3.586   9.822   1.184
10741SOL    HW144282   3.675   9.869   1.181
10741SOL    HW244283   3.550   9.827   1.277
10742SOL     OW44284   2.740   9.683   0.646
10742SOL    HW144285   2.810   9.725   0.703
10742SOL    HW244286   2.687   9.754   0.599
10743SOL     OW44287   2.941   9.542   1.747
10743SOL    HW144288   2.965   9.534   1.844
10743SOL    HW244289   2.857   9.492   1.729
10744SOL     OW44290   2.634   9.286   1.717
10744SOL    HW144291   2.649   9.190   1.693
10744SOL    HW244292   2.633   9.296   1.816
10745SOL     OW44293   3.577   9.850   0.906
10745SOL    HW144294   3.537   9.935   0.873
10745SOL    HW244295   3.570   9.847   1.006
10746SOL     OW44296   3.241   9.194   0.895
10746SOL    HW144297   3.193   9.281   0.890
10746SOL    HW244298   3.335   9.206   0.862
10747SOL     OW44299   3.569   9.424   1.773
10747SOL    HW144300   3.540   9.446   1.867
10747SOL    HW244301   3.547   9.328   1.754
10748SOL     OW44302   2.123   9.400   0.936
10748SOL    HW144303   2.212   9.446   0.937
10748SOL    HW244304   2.133   9.309   0.897
10749SOL     OW44305   2.190   9.545   1.183
10749SOL    HW144306   2.120   9.496   1.130
10749SOL    HW244307   2.280   9.527   1.144
10750SOL     OW44308   2.830   0.280   1.239
10750SOL    HW144309   2.853   0.184   1.223
10750SOL    HW244310   2.746   0.286   1.293
10751SOL     OW44311   3.177   9.688   0.449
10751SOL    HW144312   3.142   9.766   0.396
10751SOL    HW244313   3.277   9.687   0.445
10752SOL     OW44314   2.121   9.856   1.507
10752SOL    HW144315   2.093   9.767   1.469
10752SOL    HW244316   2.108   9.855   1.606
10753SOL     OW44317   2.040   9.601   1.415
10753SOL    HW144318   2.103   9.580   1.341
10753SOL    HW244319   1.949   9.566   1.392
10754SOL     OW44320   2.871   0.006   1.205
10754SOL    HW144321   2.899   9.923   1.158
10754SOL    HW244322   2.790   9.988   1.261
10755SOL     OW44323   3.449   9.663   0.475
10755SOL    HW144324   3.542   9.648   0.442
10755SOL    HW244325   3.448   9.658   0.575
10756SOL     OW44326   2.687   9.582   0.271
10756SOL    HW144327   2.615   9.567   0.338
10756SOL    HW244328   2.776   9.587   0.317
10757SOL     OW44329   2.657   9.970   1.373
10757SOL    HW144330   2.625   0.064   1.385
10757SOL    HW244331   2.693   9.936   1.461
10758SOL     OW44332   2.221   9.903   0.883
10758SOL    HW144333   2.295   9.863   0.829
10758SOL    HW244334   2.230   9.876   0.979
10759SOL     OW44335   2.525   9.253   0.424
10759SOL    HW144336   2.511   9.234   0.327
10759SOL    HW244337   2.513   9.351   0.441
10760SOL     OW44338   3.420   9.521   1.562
10760SOL    HW144339   3.373   9.609   1.573
10760SOL    HW244340   3.476   9.503   1.643
10761SOL     OW44341   3.126   9.449   0.906
10761SOL    HW144342   3.135   9.516   0.832
10761SOL    HW244343   3.172   9.484   0.988
10762SOL     OW44344   3.202   9.312   0.146
10762SOL    HW144345   3.276   9.251   0.116
10762SOL    HW244346   3.114   9.266   0.136
10763SOL     OW44347   3.431   9.238   1.578
10763SOL    HW144348   3.419   9.191   1.491
10763SOL    HW244349   3.406   9.334   1.568
10764SOL     OW44350   2.525   9.527   0.710
10764SOL    HW144351   2.541   9.454   0.776
10764SOL    HW244352   2.611   9.576   0.694
10765SOL     OW44353   3.213   9.842   1.118
10765SOL    HW144354   3.220   9.899   1.036
10765SOL    HW244355   3.249   9.892   1.197
10766SOL     OW44356   3.407   9.313   0.526
10766SOL    HW144357   3.424   9.337   0.431
10766SOL    HW244358   3.313   9.338   0.550
10767SOL     OW44359   2.939   9.780   0.801
10767SOL    HW144360   3.032   9.749   0.781
10767SOL    HW244361   2.929   9.798   0.899
10768SOL     OW44362   3.567   9.798   1.717
10768SOL    HW144363   3.532   9.892   1.711
10768SOL    HW244364   3.662   9.800   1.750
10769SOL     OW44365   3.253   9.573   1.120
10769SOL    HW144366   3.242   9.672   1.111
10769SOL    HW244367   3.229   9.546   1.213
10770SOL     OW44368   3.368   9.703   1.882
10770SOL    HW144369   3.441   9.732   1.820
10770SOL    HW244370   3.395   9.619   1.929
10771SOL     OW44371   3.430   9.430   0.277
10771SOL    HW144372   3.407   9.518   0.318
10771SOL    HW244373   3.351   9.395   0.227
10772SOL     OW44374   2.008   9.488   1.675
10772SOL    HW144375   2.019   9.535   1.587
10772SOL    HW244376   1.912   9.492   1.703
10773SOL     OW44377   3.621   9.513   1.374
10773SOL    HW144378   3.542   9.520   1.435
10773SOL    HW244379   3.591   9.522   1.279
10774SOL     OW44380   1.992   9.785   0.776
10774SOL    HW144381   1.906   9.808   0.822
10774SOL    HW244382   2.067   9.834   0.820
10775SOL     OW44383   2.999   9.854   0.026
10775SOL    HW144384   3.017   9.942   9.983
10775SOL    HW244385   3.059   9.784   9.987
10776SOL     OW44386   3.159   9.417   0.553
10776SOL    HW144387   3.066   9.408   0.590
10776SOL    HW244388   3.168   9.506   0.508
10777SOL     OW44389   3.253   9.748   1.520
10777SOL    HW144390   3.198   9.767   1.601
10777SOL    HW244391   3.207   9.680   1.463
10778SOL     OW44392   2.067   9.393   0.055
10778SOL    HW144393   2.127   9.322   0.019
10778SOL    HW244394   2.020   9.360   0.137
10779SOL     OW44395   2.501   9.938   1.143
10779SOL    HW144396   2.545   9.942   1.233
10779SOL    HW244397   2.408   9.904   1.152
10780SOL     OW44398   2.892   9.450   0.630
10780SOL    HW144399   2.836   9.532   0.636
10780SOL    HW244400   2.875   9.392   0.710
10781SOL     OW44401   2.592   9.341   0.899
10781SOL    HW144402   2.563   9.264   0.954
10781SOL    HW244403   2.691   9.340   0.889
10782SOL     OW44404   1.929   0.195   1.058
10782SOL    HW144405   2.016   0.239   1.082
10782SOL    HW244406   1.853   0.250   1.094
10783SOL     OW44407   2.163   9.226   0.487
10783SOL    HW144408   2.231   9.246   0.557
10783SOL    HW244409   2.074   9.263   0.515
10784SOL     OW44410   3.636   9.455   0.878
10784SOL    HW144411   3.608   9.487   0.969
10784SOL    HW244412   3.736   9.453   0.873
10785SOL     OW44413   3.060   9.890   0.294
10785SOL    HW144414   2.987   9.941   0.339
10785SOL    HW244415   3.032   9.866   0.201
10786SOL     OW44416   2.142   0.091   1.367
10786SOL    HW144417   2.147   0.008   1.423
10786SOL    HW244418   2.086   0.159   1.414
10787SOL     OW44419   2.407   9.585   1.801
10787SOL    HW144420   2.463   9.575   1.719
10787SOL    HW244421   2.418   9.677   1.838
10788SOL     OW44422   2.349   9.962   0.390
10788SOL    HW144423   2.308   0.044   0.429
10788SOL    HW244424   2.342   9.966   0.290
10789SOL     OW44425   3.195   9.517   1.382
10789SOL    HW144426   3.266   9.485   1.444
10789SOL    HW244427   3.127   9.444   1.369
10790SOL     OW44428   1.908   9.349   0.517
10790SOL    HW144429   1.808   9.344   0.514
10790SOL    HW244430   1.936   9.424   0.578
10791SOL     OW44431   3.157   9.357   1.738
10791SOL    HW144432   3.191   9.349   1.831
10791SOL    HW244433   3.089   9.430   1.733
10792SOL     OW44434   2.949   9.780   1.082
10792SOL    HW144435   3.048   9.790   1.096
10792SOL    HW244436   2.923   9.684   1.093
10793SOL     OW44437   2.872   9.329   0.889
10793SOL    HW144438   2.962   9.371   0.903
10793SOL    HW244439   2.859   9.255   0.955
10794SOL     OW44440   3.467   9.649   0.753
10794SOL    HW144441   3.502   9.729   0.801
10794SOL    HW244442   3.518   9.567   0.781
10795SOL     OW44443   2.711   9.379   0.097
10795SOL    HW144444   2.798   9.330   0.102
10795SOL    HW244445   2.710   9.451   0.166
10796SOL     OW44446   2.431   9.779   0.760
10796SOL    HW144447   2.440   9.680   0.745
10796SOL    HW244448   2.477   9.828   0.685
10797SOL     OW44449   2.060   9.838   1.777
10797SOL    HW144450   2.118   9.800   1.848
10797SOL    HW244451   1.993   9.900   1.817
10798SOL     OW44452   2.577   9.722   0.996
10798SOL    HW144453   2.550   9.745   0.903
10798SOL    HW244454   2.562   9.801   1.056
10799SOL     OW44455   2.011   9.958   1.167
10799SOL    HW144456   2.050   9.999   1.249
10799SOL    HW244457   1.974   0.030   1.109
10800SOL     OW44458   2.479   9.524   0.444
10800SOL    HW144459   2.411   9.590   0.415
10800SOL    HW244460   2.488   9.526   0.544
10801SOL     OW44461   3.488   9.246   0.778
10801SOL    HW144462   3.453   9.277   0.689
10801SOL    HW244463   3.542   9.319   0.819
10802SOL     OW44464   3.186   9.670   0.735
10802SOL    HW144465   3.171   9.681   0.637
10802SOL    HW244466   3.285   9.666   0.753
10803SOL     OW44467   3.489   9.828   3.255
10803SOL    HW144468   3.398   9.800   3.285
10803SOL    HW244469   3.554   9.816   3.330
10804SOL     OW44470   2.209   9.406   1.829
10804SOL    HW144471   2.133   9.433   1.771
10804SOL    HW244472   2.285   9.471   1.817
10805SOL     OW44473   3.034   9.293   3.161
10805SOL    HW144474   2.954   9.242   3.193
10805SOL    HW244475   3.085   9.237   3.096
10806SOL     OW44476   2.387   9.238   1.969
10806SOL    HW144477   2.480   9.274   1.974
10806SOL    HW244478   2.331   9.299   1.912
10807SOL     OW44479   2.621   9.813   2.383
10807SOL    HW144480   2.628   9.889   2.318
10807SOL    HW244481   2.573   9.737   2.340
10808SOL     OW44482   3.140   9.756   3.602
10808SOL    HW144483   3.233   9.727   3.623
10808SOL    HW244484   3.080   9.677   3.598
10809SOL     OW44485   2.346   9.524   2.868
10809SOL    HW144486   2.417   9.590   2.894
10809SOL    HW244487   2.389   9.447   2.821
10810SOL     OW44488   3.516   9.557   2.941
10810SOL    HW144489   3.550   9.650   2.956
10810SOL    HW244490   3.416   9.559   2.936
10811SOL     OW44491   2.912   9.549   2.216
10811SOL    HW144492   2.905   9.624   2.282
10811SOL    HW244493   2.926   9.463   2.266
10812SOL     OW44494   2.447   9.836   1.911
10812SOL    HW144495   2.418   9.931   1.903
10812SOL    HW244496   2.544   9.832   1.935
10813SOL     OW44497   2.827   9.859   3.490
10813SOL    HW144498   2.867   9.773   3.520
10813SOL    HW244499   2.887   9.935   3.517
10814SOL     OW44500   3.050   9.521   1.988
10814SOL    HW144501   3.119   9.451   2.005
10814SOL    HW244502   3.005   9.545   2.073
10815SOL     OW44503   2.255   9.765   3.170
10815SOL    HW144504   2.248   9.667   3.157
10815SOL    HW244505   2.211   9.813   3.094
10816SOL     OW44506   3.311   0.013   3.148
10816SOL    HW144507   3.350   0.097   3.111
10816SOL    HW244508   3.384   9.958   3.189
10817SOL     OW44509   2.258   9.525   2.300
10817SOL    HW144510   2.200   9.570   2.368
10817SOL    HW244511   2.216   9.532   2.210
10818SOL     OW44512   3.595   9.813   3.002
10818SOL    HW144513   3.690   9.843   3.002
10818SOL    HW244514   3.557   9.821   3.094
10819SOL     OW44515   2.860   9.690   2.442
10819SOL    HW144516   2.915   9.747   2.503
10819SOL    HW244517   2.770   9.733   2.428
10820SOL     OW44518   2.915   9.586   3.591
10820SOL    HW144519   2.926   9.570   3.689
10820SOL    HW244520   2.827   9.549   3.561
10821SOL     OW44521   3.453   9.845   2.109
10821SOL    HW144522   3.405   9.803   2.032
10821SOL    HW244523   3.473   9.775   2.178
10822SOL     OW44524   2.632   9.266   3.568
10822SOL    HW144525   2.652   9.172   3.540
10822SOL    HW244526   2.629   9.271   3.667
10823SOL     OW44527   3.573   9.869   2.730
10823SOL    HW144528   3.523   9.950   2.698
10823SOL    HW244529   3.566   9.862   2.829
10824SOL     OW44530   3.233   9.207   2.723
10824SOL    HW144531   3.180   9.291   2.728
10824SOL    HW244532   3.319   9.224   2.675
10825SOL     OW44533   3.576   9.412   3.572
10825SOL    HW144534   3.532   9.420   3.662
10825SOL    HW244535   3.544   9.329   3.526
10826SOL     OW44536   2.138   9.443   2.686
10826SOL    HW144537   2.201   9.470   2.759
10826SOL    HW244538   2.158   9.349   2.658
10827SOL     OW44539   2.223   9.472   3.111
10827SOL    HW144540   2.222   9.373   3.124
10827SOL    HW244541   2.265   9.494   3.023
10828SOL     OW44542   2.822   0.302   3.037
10828SOL    HW144543   2.827   0.205   3.013
10828SOL    HW244544   2.734   0.339   3.008
10829SOL     OW44545   3.215   9.650   2.278
10829SOL    HW144546   3.172   9.726   2.230
10829SOL    HW244547   3.315   9.662   2.277
10830SOL     OW44548   2.146   9.940   3.361
10830SOL    HW144549   2.192   9.873   3.302
10830SOL    HW244550   2.113   9.895   3.444
10831SOL     OW44551   1.999   9.502   3.273
10831SOL    HW144552   2.084   9.495   3.221
10831SOL    HW244553   1.945   9.578   3.237
10832SOL     OW44554   2.803   0.033   2.963
10832SOL    HW144555   2.851   9.959   2.916
10832SOL    HW244556   2.796   0.012   3.060
10833SOL     OW44557   3.491   9.660   2.307
10833SOL    HW144558   3.578   9.615   2.290
10833SOL    HW244559   3.477   9.671   2.405
10834SOL     OW44560   2.682   9.577   2.087
10834SOL    HW144561   2.611   9.573   2.158
10834SOL    HW244562   2.772   9.565   2.129
10835SOL     OW44563   2.795   0.173   2.354
10835SOL    HW144564   2.739   0.115   2.295
10835SOL    HW244565   2.737   0.219   2.421
10836SOL     OW44566   1.931   9.534   2.268
10836SOL    HW144567   1.987   9.538   2.185
10836SOL    HW244568   1.983   9.570   2.345
10837SOL     OW44569   2.807   9.984   3.238
10837SOL    HW144570   2.732   0.050   3.248
10837SOL    HW244571   2.808   9.924   3.318
10838SOL     OW44572   2.266   9.766   2.739
10838SOL    HW144573   2.353   9.782   2.693
10838SOL    HW244574   2.271   9.680   2.791
10839SOL     OW44575   2.616   9.278   2.277
10839SOL    HW144576   2.614   9.259   2.179
10839SOL    HW244577   2.587   9.372   2.293
10840SOL     OW44578   3.408   9.518   3.373
10840SOL    HW144579   3.364   9.608   3.376
10840SOL    HW244580   3.470   9.510   3.451
10841SOL     OW44581   3.111   9.459   2.750
10841SOL    HW144582   3.131   9.516   2.670
10841SOL    HW244583   3.156   9.498   2.830
10842SOL     OW44584   3.227   9.310   2.031
10842SOL    HW144585   3.228   9.212   2.012
10842SOL    HW244586   3.201   9.325   2.126
10843SOL     OW44587   3.427   9.238   3.406
10843SOL    HW144588   3.421   9.189   3.319
10843SOL    HW244589   3.393   9.331   3.394
10844SOL     OW44590   2.599   9.500   2.585
10844SOL    HW144591   2.536   9.432   2.624
10844SOL    HW244592   2.692   9.481   2.617
10845SOL     OW44593   3.199   9.862   2.949
10845SOL    HW144594   3.209   9.921   2.868
10845SOL    HW244595   3.237   9.908   3.029
10846SOL     OW44596   3.439   9.297   2.305
10846SOL    HW144597   3.466   9.249   2.222
10846SOL    HW244598   3.342   9.322   2.299
10847SOL     OW44599   3.012   9.842   2.603
10847SOL    HW144600   3.091   9.781   2.598
10847SOL    HW244601   2.983   9.851   2.699
10848SOL     OW44602   3.621   9.788   3.501
10848SOL    HW144603   3.617   9.887   3.496
10848SOL    HW244604   3.715   9.759   3.520
10849SOL     OW44605   3.240   9.592   2.956
10849SOL    HW144606   3.230   9.691   2.947
10849SOL    HW244607   3.212   9.563   3.048
10850SOL     OW44608   3.398   9.677   3.641
10850SOL    HW144609   3.479   9.719   3.601
10850SOL    HW244610   3.427   9.607   3.707
10851SOL     OW44611   3.449   9.480   2.019
10851SOL    HW144612   3.494   9.484   2.108
10851SOL    HW244613   3.375   9.412   2.022
10852SOL     OW44614   1.993   9.533   3.549
10852SOL    HW144615   1.990   9.518   3.450
10852SOL    HW244616   1.907   9.503   3.590
10853SOL     OW44617   2.071   9.619   2.487
10853SOL    HW144618   2.056   9.712   2.520
10853SOL    HW244619   2.099   9.560   2.563
10854SOL     OW44620   2.190   9.792   2.031
10854SOL    HW144621   2.285   9.807   2.004
10854SOL    HW244622   2.162   9.861   2.097
10855SOL     OW44623   3.601   9.447   3.182
10855SOL    HW144624   3.531   9.478   3.246
10855SOL    HW244625   3.574   9.473   3.089
10856SOL     OW44626   2.114   9.533   2.059
10856SOL    HW144627   2.149   9.482   1.980
10856SOL    HW244628   2.131   9.631   2.045
10857SOL     OW44629   2.051   9.876   2.616
10857SOL    HW144630   2.074   9.972   2.604
10857SOL    HW244631   2.125   9.830   2.666
10858SOL     OW44632   2.970   9.929   1.900
10858SOL    HW144633   2.966   0.011   1.844
10858SOL    HW244634   3.029   9.861   1.857
10859SOL     OW44635   2.717   9.834   1.987
10859SOL    HW144636   2.808   9.858   1.954
10859SOL    HW244637   2.715   9.738   2.011
10860SOL     OW44638   3.173   9.382   2.289
10860SOL    HW144639   3.103   9.366   2.359
10860SOL    HW244640   3.190   9.480   2.281
10861SOL     OW44641   3.248   9.748   3.344
10861SOL    HW144642   3.201   9.774   3.428
10861SOL    HW244643   3.190   9.685   3.291
10862SOL     OW44644   1.944   9.280   2.040
10862SOL    HW144645   2.024   9.223   2.059
10862SOL    HW244646   1.973   9.376   2.030
10863SOL     OW44647   2.466   9.953   3.065
10863SOL    HW144648   2.503   0.021   3.128
10863SOL    HW244649   2.394   9.901   3.111
10864SOL     OW44650   2.953   9.421   2.460
10864SOL    HW144651   2.927   9.517   2.461
10864SOL    HW244652   2.912   9.374   2.539
10865SOL     OW44653   2.446   9.316   2.720
10865SOL    HW144654   2.379   9.252   2.683
10865SOL    HW244655   2.524   9.266   2.757
10866SOL     OW44656   2.204   9.256   2.336
10866SOL    HW144657   2.239   9.349   2.320
10866SOL    HW244658   2.106   9.261   2.355
10867SOL     OW44659   3.615   9.459   2.701
10867SOL    HW144660   3.588   9.485   2.793
10867SOL    HW244661   3.715   9.458   2.695
10868SOL     OW44662   3.089   9.867   2.162
10868SOL    HW144663   3.059   9.922   2.239
10868SOL    HW244664   3.039   9.895   2.079
10869SOL     OW44665   2.094   0.176   3.234
10869SOL    HW144666   2.119   0.089   3.277
10869SOL    HW244667   2.024   0.222   3.289
10870SOL     OW44668   2.414   9.591   3.647
10870SOL    HW144669   2.482   9.583   3.574
10870SOL    HW244670   2.426   9.678   3.694
10871SOL     OW44671   2.390   9.984   2.189
10871SOL    HW144672   2.378   0.029   2.100
10871SOL    HW244673   2.301   9.974   2.233
10872SOL     OW44674   3.172   9.517   3.211
10872SOL    HW144675   3.250   9.489   3.266
10872SOL    HW244676   3.112   9.439   3.195
10873SOL     OW44677   1.938   9.275   2.369
10873SOL    HW144678   1.891   9.195   2.331
10873SOL    HW244679   1.908   9.357   2.319
10874SOL     OW44680   3.100   9.365   3.574
10874SOL    HW144681   3.125   9.352   3.670
10874SOL    HW244682   3.040   9.445   3.566
10875SOL     OW44683   2.941   9.816   2.871
10875SOL    HW144684   3.034   9.829   2.908
10875SOL    HW244685   2.910   9.723   2.894
10876SOL     OW44686   2.832   9.411   2.714
10876SOL    HW144687   2.927   9.424   2.745
10876SOL    HW244688   2.786   9.348   2.776
10877SOL     OW44689   3.472   9.663   2.582
10877SOL    HW144690   3.506   9.744   2.629
10877SOL    HW244691   3.521   9.582   2.614
10878SOL     OW44692   2.645   9.321   1.988
10878SOL    HW144693   2.728   9.265   1.995
10878SOL    HW244694   2.666   9.416   2.014
10879SOL     OW44695   2.526   9.759   2.637
10879SOL    HW144696   2.551   9.663   2.628
10879SOL    HW244697   2.557   9.810   2.557
10880SOL     OW44698   2.046   9.805   3.582
10880SOL    HW144699   2.032   9.707   3.572
10880SOL    HW244700   2.007   9.836   3.669
10881SOL     OW44701   2.525   9.724   2.914
10881SOL    HW144702   2.544   9.751   2.820
10881SOL    HW244703   2.518   9.806   2.971
10882SOL     OW44704   2.165   9.906   2.961
10882SOL    HW144705   2.163   0.006   2.961
10882SOL    HW244706   2.199   9.874   2.872
10883SOL     OW44707   2.529   9.548   2.321
10883SOL    HW144708   2.430   9.540   2.313
10883SOL    HW244709   2.557   9.532   2.415
10884SOL     OW44710   3.463   9.265   2.580
10884SOL    HW144711   3.458   9.282   2.481
10884SOL    HW244712   3.519   9.336   2.622
10885SOL     OW44713   3.199   9.644   2.557
10885SOL    HW144714   3.187   9.641   2.457
10885SOL    HW244715   3.296   9.651   2.579
10886SOL     OW44716   3.476   9.840   5.163
10886SOL    HW144717   3.388   9.794   5.173
10886SOL    HW244718   3.534   9.816   5.242
10887SOL     OW44719   2.204   9.429   3.685
10887SOL    HW144720   2.126   9.464   3.634
10887SOL    HW244721   2.284   9.487   3.667
10888SOL     OW44722   3.082   9.263   5.017
10888SOL    HW144723   2.993   9.225   5.043
10888SOL    HW244724   3.126   9.203   4.950
10889SOL     OW44725   2.373   9.248   3.819
10889SOL    HW144726   2.468   9.281   3.827
10889SOL    HW244727   2.319   9.316   3.770
10890SOL     OW44728   2.592   9.804   4.227
10890SOL    HW144729   2.533   9.869   4.180
10890SOL    HW244730   2.564   9.711   4.203
10891SOL     OW44731   3.064   9.742   5.405
10891SOL    HW144732   3.154   9.726   5.447
10891SOL    HW244733   3.007   9.661   5.416
10892SOL     OW44734   2.383   9.516   4.714
10892SOL    HW144735   2.455   9.584   4.707
10892SOL    HW244736   2.411   9.433   4.665
10893SOL     OW44737   3.468   9.583   4.768
10893SOL    HW144738   3.511   9.664   4.808
10893SOL    HW244739   3.374   9.575   4.801
10894SOL     OW44740   2.902   9.584   4.105
10894SOL    HW144741   2.895   9.675   4.147
10894SOL    HW244742   2.922   9.516   4.176
10895SOL     OW44743   2.457   9.827   3.791
10895SOL    HW144744   2.436   9.925   3.789
10895SOL    HW244745   2.554   9.814   3.810
10896SOL     OW44746   2.889   9.913   5.252
10896SOL    HW144747   2.936   9.835   5.293
10896SOL    HW244748   2.895   9.992   5.314
10897SOL     OW44749   2.981   9.531   3.845
10897SOL    HW144750   3.041   9.450   3.847
10897SOL    HW244751   2.961   9.559   3.939
10898SOL     OW44752   2.242   9.825   4.829
10898SOL    HW144753   2.239   9.726   4.840
10898SOL    HW244754   2.151   9.863   4.845
10899SOL     OW44755   3.309   0.009   5.018
10899SOL    HW144756   3.367   0.090   5.009
10899SOL    HW244757   3.362   9.935   5.059
10900SOL     OW44758   2.244   9.496   4.159
10900SOL    HW144759   2.191   9.539   4.232
10900SOL    HW244760   2.208   9.524   4.070
10901SOL     OW44761   3.547   9.831   4.883
10901SOL    HW144762   3.628   9.887   4.864
10901SOL    HW244763   3.533   9.827   4.982
10902SOL     OW44764   2.870   9.825   4.234
10902SOL    HW144765   2.909   9.841   4.325
10902SOL    HW244766   2.771   9.829   4.239
10903SOL     OW44767   2.906   9.527   5.458
10903SOL    HW144768   2.942   9.530   5.551
10903SOL    HW244769   2.820   9.475   5.457
10904SOL     OW44770   2.647   9.289   5.389
10904SOL    HW144771   2.664   9.193   5.367
10904SOL    HW244772   2.641   9.299   5.488
10905SOL     OW44773   3.431   9.911   4.629
10905SOL    HW144774   3.341   9.955   4.631
10905SOL    HW244775   3.462   9.895   4.723
10906SOL     OW44776   3.245   9.240   4.580
10906SOL    HW144777   3.180   9.314   4.595
10906SOL    HW244778   3.332   9.279   4.549
10907SOL     OW44779   3.585   9.454   5.522
10907SOL    HW144780   3.521   9.493   5.588
10907SOL    HW244781   3.662   9.413   5.570
10908SOL     OW44782   2.142   9.430   4.550
10908SOL    HW144783   2.212   9.469   4.609
10908SOL    HW244784   2.171   9.339   4.519
10909SOL     OW44785   2.224   9.465   4.936
10909SOL    HW144786   2.209   9.366   4.944
10909SOL    HW244787   2.284   9.483   4.858
10910SOL     OW44788   2.830   0.350   4.947
10910SOL    HW144789   2.924   0.351   4.982
10910SOL    HW244790   2.803   0.256   4.928
10911SOL     OW44791   3.227   9.653   4.128
10911SOL    HW144792   3.166   9.723   4.090
10911SOL    HW244793   3.322   9.678   4.109
10912SOL     OW44794   2.085   9.841   5.195
10912SOL    HW144795   2.076   9.749   5.158
10912SOL    HW244796   2.076   9.838   5.295
10913SOL     OW44797   2.044   9.574   5.114
10913SOL    HW144798   2.117   9.541   5.054
10913SOL    HW244799   1.956   9.538   5.083
10914SOL     OW44800   2.860   0.071   4.906
10914SOL    HW144801   2.940   0.071   4.965
10914SOL    HW244802   2.789   0.013   4.945
10915SOL     OW44803   2.679   9.565   3.956
10915SOL    HW144804   2.603   9.562   4.020
10915SOL    HW244805   2.765   9.564   4.007
10916SOL     OW44806   2.802   0.192   4.206
10916SOL    HW144807   2.771   0.130   4.135
10916SOL    HW244808   2.730   0.203   4.274
10917SOL     OW44809   1.924   9.562   4.116
10917SOL    HW144810   1.985   9.580   4.039
10917SOL    HW244811   1.971   9.583   4.202
10918SOL     OW44812   2.673   9.941   5.064
10918SOL    HW144813   2.627   0.026   5.091
10918SOL    HW244814   2.741   9.917   5.134
10919SOL     OW44815   2.239   9.934   4.573
10919SOL    HW144816   2.315   9.893   4.522
10919SOL    HW244817   2.240   9.901   4.667
10920SOL     OW44818   2.599   9.268   4.122
10920SOL    HW144819   2.605   9.263   4.022
10920SOL    HW244820   2.572   9.360   4.149
10921SOL     OW44821   3.398   9.494   5.324
10921SOL    HW144822   3.350   9.569   5.370
10921SOL    HW244823   3.482   9.474   5.374
10922SOL     OW44824   3.099   9.470   4.626
10922SOL    HW144825   3.126   9.529   4.549
10922SOL    HW244826   3.137   9.507   4.711
10923SOL     OW44827   3.164   9.314   3.844
10923SOL    HW144828   3.160   9.215   3.834
10923SOL    HW244829   3.166   9.338   3.941
10924SOL     OW44830   3.400   9.217   5.328
10924SOL    HW144831   3.398   9.189   5.232
10924SOL    HW244832   3.382   9.315   5.335
10925SOL     OW44833   2.605   9.474   4.418
10925SOL    HW144834   2.539   9.416   4.466
10925SOL    HW244835   2.695   9.465   4.460
10926SOL     OW44836   3.143   9.859   4.846
10926SOL    HW144837   3.148   9.911   4.761
10926SOL    HW244838   3.198   9.905   4.916
10927SOL     OW44839   3.425   9.302   4.048
10927SOL    HW144840   3.435   9.213   4.005
10927SOL    HW244841   3.332   9.313   4.083
10928SOL     OW44842   2.996   9.816   4.487
10928SOL    HW144843   3.060   9.745   4.456
10928SOL    HW244844   2.949   9.785   4.570
10929SOL     OW44845   3.532   9.864   5.453
10929SOL    HW144846   3.498   9.952   5.420
10929SOL    HW244847   3.604   9.879   5.520
10930SOL     OW44848   3.201   9.590   4.847
10930SOL    HW144849   3.182   9.688   4.854
10930SOL    HW244850   3.206   9.552   4.940
10931SOL     OW44851   3.318   9.699   5.499
10931SOL    HW144852   3.395   9.760   5.480
10931SOL    HW244853   3.336   9.647   5.582
10932SOL     OW44854   3.426   9.440   3.803
10932SOL    HW144855   3.457   9.414   3.895
10932SOL    HW244856   3.332   9.407   3.790
10933SOL     OW44857   2.008   9.535   5.385
10933SOL    HW144858   2.021   9.544   5.286
10933SOL    HW244859   1.912   9.515   5.405
10934SOL     OW44860   2.069   9.593   4.344
10934SOL    HW144861   2.045   9.683   4.381
10934SOL    HW244862   2.093   9.531   4.419
10935SOL     OW44863   2.201   9.831   3.925
10935SOL    HW144864   2.289   9.826   3.879
10935SOL    HW244865   2.202   9.908   3.990
10936SOL     OW44866   2.121   9.568   3.922
10936SOL    HW144867   2.149   9.520   3.839
10936SOL    HW244868   2.148   9.664   3.916
10937SOL     OW44869   2.002   9.823   4.464
10937SOL    HW144870   1.917   9.843   4.512
10937SOL    HW244871   2.077   9.875   4.504
10938SOL     OW44872   2.994   9.915   3.768
10938SOL    HW144873   2.976   9.997   3.713
10938SOL    HW244874   3.054   9.853   3.718
10939SOL     OW44875   2.733   9.814   3.845
10939SOL    HW144876   2.825   9.830   3.811
10939SOL    HW244877   2.725   9.719   3.877
10940SOL     OW44878   3.166   9.384   4.107
10940SOL    HW144879   3.095   9.368   4.176
10940SOL    HW244880   3.192   9.481   4.109
10941SOL     OW44881   3.224   9.746   5.176
10941SOL    HW144882   3.162   9.756   5.254
10941SOL    HW244883   3.219   9.653   5.141
10942SOL     OW44884   1.934   9.301   3.877
10942SOL    HW144885   2.006   9.232   3.884
10942SOL    HW244886   1.960   9.382   3.929
10943SOL     OW44887   2.513   9.917   4.829
10943SOL    HW144888   2.558   9.923   4.918
10943SOL    HW244889   2.416   9.895   4.842
10944SOL     OW44890   2.982   9.426   4.314
10944SOL    HW144891   3.047   9.490   4.356
10944SOL    HW244892   2.916   9.396   4.383
10945SOL     OW44893   2.453   9.298   4.566
10945SOL    HW144894   2.386   9.234   4.529
10945SOL    HW244895   2.532   9.248   4.601
10946SOL     OW44896   1.915   0.206   4.744
10946SOL    HW144897   1.998   0.255   4.770
10946SOL    HW244898   1.835   0.254   4.780
10947SOL     OW44899   2.138   9.241   4.161
10947SOL    HW144900   2.184   9.330   4.162
10947SOL    HW244901   2.042   9.252   4.187
10948SOL     OW44902   3.064   9.852   4.033
10948SOL    HW144903   2.994   9.864   4.103
10948SOL    HW244904   3.025   9.873   3.943
10949SOL     OW44905   2.119   0.079   5.066
10949SOL    HW144906   2.120   9.991   5.115
10949SOL    HW244907   2.093   0.152   5.129
10950SOL     OW44908   2.407   9.603   5.468
10950SOL    HW144909   2.469   9.590   5.391
10950SOL    HW244910   2.422   9.694   5.508
10951SOL     OW44911   2.438   9.990   4.093
10951SOL    HW144912   2.427   0.026   4.001
10951SOL    HW244913   2.352   0.000   4.143
10952SOL     OW44914   3.223   9.485   5.100
10952SOL    HW144915   3.288   9.468   5.175
10952SOL    HW244916   3.172   9.402   5.081
10953SOL     OW44917   1.874   9.305   4.195
10953SOL    HW144918   1.778   9.280   4.183
10953SOL    HW244919   1.887   9.401   4.172
10954SOL     OW44920   3.120   9.347   5.439
10954SOL    HW144921   3.174   9.356   5.523
10954SOL    HW244922   3.048   9.417   5.438
10955SOL     OW44923   2.908   9.720   4.736
10955SOL    HW144924   2.965   9.783   4.789
10955SOL    HW244925   2.927   9.626   4.763
10956SOL     OW44926   2.838   9.398   4.554
10956SOL    HW144927   2.926   9.416   4.597
10956SOL    HW244928   2.786   9.334   4.611
10957SOL     OW44929   3.406   9.665   4.515
10957SOL    HW144930   3.421   9.763   4.532
10957SOL    HW244931   3.441   9.612   4.593
10958SOL     OW44932   2.637   9.317   3.842
10958SOL    HW144933   2.719   9.260   3.837
10958SOL    HW244934   2.662   9.410   3.870
10959SOL     OW44935   2.460   9.802   4.475
10959SOL    HW144936   2.511   9.751   4.544
10959SOL    HW244937   2.513   9.806   4.390
10960SOL     OW44938   2.035   9.796   5.467
10960SOL    HW144939   2.037   9.698   5.450
10960SOL    HW244940   2.084   9.817   5.552
10961SOL     OW44941   2.604   9.698   4.696
10961SOL    HW144942   2.703   9.694   4.696
10961SOL    HW244943   2.573   9.780   4.743
10962SOL     OW44944   1.996   9.962   4.854
10962SOL    HW144945   2.037   0.001   4.936
10962SOL    HW244946   1.964   0.036   4.794
10963SOL     OW44947   2.513   9.539   4.175
10963SOL    HW144948   2.414   9.523   4.172
10963SOL    HW244949   2.547   9.520   4.267
10964SOL     OW44950   3.172   9.617   4.397
10964SOL    HW144951   3.182   9.633   4.298
10964SOL    HW244952   3.260   9.634   4.442
10965SOL     OW44953   3.480   9.815   6.936
10965SOL    HW144954   3.410   9.760   6.982
10965SOL    HW244955   3.485   9.905   6.979
10966SOL     OW44956   2.215   9.425   5.519
10966SOL    HW144957   2.135   9.457   5.468
10966SOL    HW244958   2.292   9.485   5.501
10967SOL     OW44959   3.037   9.238   6.853
10967SOL    HW144960   2.954   9.191   6.882
10967SOL    HW244961   3.083   9.185   6.782
10968SOL     OW44962   2.380   9.252   5.664
10968SOL    HW144963   2.476   9.280   5.659
10968SOL    HW244964   2.325   9.315   5.609
10969SOL     OW44965   2.561   9.776   6.072
10969SOL    HW144966   2.508   9.839   6.015
10969SOL    HW244967   2.545   9.682   6.042
10970SOL     OW44968   3.120   9.779   7.292
10970SOL    HW144969   3.198   9.783   7.354
10970SOL    HW244970   3.075   9.690   7.301
10971SOL     OW44971   2.372   9.490   6.552
10971SOL    HW144972   2.436   9.566   6.545
10971SOL    HW244973   2.410   9.409   6.507
10972SOL     OW44974   3.520   9.529   6.656
10972SOL    HW144975   3.553   9.623   6.663
10972SOL    HW244976   3.420   9.528   6.659
10973SOL     OW44977   2.915   9.571   5.917
10973SOL    HW144978   2.894   9.648   5.978
10973SOL    HW244979   2.934   9.490   5.972
10974SOL     OW44980   2.445   9.847   5.600
10974SOL    HW144981   2.421   9.943   5.614
10974SOL    HW244982   2.538   9.831   5.633
10975SOL     OW44983   2.872   9.924   7.102
10975SOL    HW144984   2.908   9.834   7.127
10975SOL    HW244985   2.928   9.995   7.144
10976SOL     OW44986   3.045   9.534   5.685
10976SOL    HW144987   3.114   9.464   5.703
10976SOL    HW244988   3.003   9.563   5.771
10977SOL     OW44989   2.248   9.755   6.721
10977SOL    HW144990   2.243   9.658   6.742
10977SOL    HW244991   2.157   9.796   6.732
10978SOL     OW44992   3.268   0.028   6.832
10978SOL    HW144993   3.310   0.054   6.745
10978SOL    HW244994   3.337   0.029   6.904
10979SOL     OW44995   2.247   9.488   5.990
10979SOL    HW144996   2.195   9.533   6.063
10979SOL    HW244997   2.210   9.514   5.901
10980SOL     OW44998   3.605   9.790   6.697
10980SOL    HW144999   3.703   9.803   6.712
10980SOL    HW245000   3.556   9.801   6.783
10981SOL     OW45001   2.832   9.710   6.136
10981SOL    HW145002   2.879   9.763   6.206
10981SOL    HW245003   2.738   9.743   6.127
10982SOL     OW45004   2.976   9.540   7.306
10982SOL    HW145005   2.993   9.540   7.405
10982SOL    HW245006   2.891   9.492   7.287
10983SOL     OW45007   3.518   9.917   5.837
10983SOL    HW145008   3.591   9.934   5.772
10983SOL    HW245009   3.523   9.822   5.869
10984SOL     OW45010   2.730   9.339   7.274
10984SOL    HW145011   2.770   9.254   7.240
10984SOL    HW245012   2.697   9.325   7.367
10985SOL     OW45013   3.566   9.844   6.423
10985SOL    HW145014   3.531   9.933   6.394
10985SOL    HW245015   3.565   9.840   6.523
10986SOL     OW45016   3.246   9.197   6.414
10986SOL    HW145017   3.195   9.283   6.419
10986SOL    HW245018   3.334   9.214   6.370
10987SOL     OW45019   3.631   9.480   7.351
10987SOL    HW145020   3.567   9.521   7.417
10987SOL    HW245021   3.679   9.405   7.395
10988SOL     OW45022   2.150   9.426   6.382
10988SOL    HW145023   2.217   9.462   6.446
10988SOL    HW245024   2.177   9.334   6.353
10989SOL     OW45025   2.216   9.469   6.775
10989SOL    HW145026   2.193   9.374   6.794
10989SOL    HW245027   2.273   9.474   6.693
10990SOL     OW45028   2.849   0.307   6.798
10990SOL    HW145029   2.917   0.239   6.825
10990SOL    HW245030   2.758   0.267   6.804
10991SOL     OW45031   3.225   9.666   5.971
10991SOL    HW145032   3.172   9.736   5.924
10991SOL    HW245033   3.323   9.685   5.960
10992SOL     OW45034   2.036   9.833   7.034
10992SOL    HW145035   2.040   9.739   7.002
10992SOL    HW245036   2.028   9.834   7.134
10993SOL     OW45037   2.028   9.563   6.962
10993SOL    HW145038   2.100   9.532   6.901
10993SOL    HW245039   1.940   9.530   6.928
10994SOL     OW45040   2.817   9.946   6.660
10994SOL    HW145041   2.857   9.857   6.637
10994SOL    HW245042   2.766   9.938   6.746
10995SOL     OW45043   3.512   9.655   5.956
10995SOL    HW145044   3.601   9.614   5.938
10995SOL    HW245045   3.498   9.664   6.055
10996SOL     OW45046   2.680   9.563   5.791
10996SOL    HW145047   2.611   9.548   5.862
10996SOL    HW245048   2.771   9.562   5.832
10997SOL     OW45049   2.780   0.159   6.075
10997SOL    HW145050   2.741   0.102   6.003
10997SOL    HW245051   2.710   0.183   6.141
10998SOL     OW45052   1.927   9.575   5.950
10998SOL    HW145053   1.992   9.579   5.874
10998SOL    HW245054   1.976   9.590   6.036
10999SOL     OW45055   2.675   9.939   6.898
10999SOL    HW145056   2.640   0.032   6.905
10999SOL    HW245057   2.739   9.921   6.973
11000SOL     OW45058   2.215   9.882   6.466
11000SOL    HW145059   2.282   9.858   6.397
11000SOL    HW245060   2.235   9.834   6.551
11001SOL     OW45061   2.652   9.248   5.968
11001SOL    HW145062   2.618   9.188   5.896
11001SOL    HW245063   2.602   9.334   5.967
11002SOL     OW45064   3.489   9.495   7.111
11002SOL    HW145065   3.424   9.570   7.109
11002SOL    HW245066   3.541   9.497   7.197
11003SOL     OW45067   3.127   9.452   6.446
11003SOL    HW145068   3.145   9.517   6.372
11003SOL    HW245069   3.174   9.482   6.528
11004SOL     OW45070   3.223   9.327   5.740
11004SOL    HW145071   3.222   9.230   5.718
11004SOL    HW245072   3.202   9.339   5.837
11005SOL     OW45073   3.422   9.229   7.113
11005SOL    HW145074   3.414   9.194   7.019
11005SOL    HW245075   3.451   9.325   7.110
11006SOL     OW45076   2.615   9.463   6.260
11006SOL    HW145077   2.553   9.401   6.309
11006SOL    HW245078   2.704   9.463   6.305
11007SOL     OW45079   3.185   9.819   6.665
11007SOL    HW145080   3.205   9.878   6.587
11007SOL    HW245081   3.205   9.867   6.750
11008SOL     OW45082   3.448   9.277   6.000
11008SOL    HW145083   3.470   9.239   5.911
11008SOL    HW245084   3.357   9.318   5.998
11009SOL     OW45085   2.990   9.820   6.331
11009SOL    HW145086   3.073   9.768   6.309
11009SOL    HW245087   2.962   9.799   6.424
11010SOL     OW45088   3.245   9.552   6.675
11010SOL    HW145089   3.229   9.651   6.674
11010SOL    HW245090   3.224   9.516   6.766
11011SOL     OW45091   3.342   9.793   7.466
11011SOL    HW145092   3.401   9.850   7.523
11011SOL    HW245093   3.366   9.697   7.478
11012SOL     OW45094   3.404   9.542   5.711
11012SOL    HW145095   3.437   9.577   5.799
11012SOL    HW245096   3.347   9.462   5.727
11013SOL     OW45097   1.989   9.517   7.236
11013SOL    HW145098   2.000   9.526   7.137
11013SOL    HW245099   1.895   9.487   7.256
11014SOL     OW45100   2.075   9.590   6.178
11014SOL    HW145101   2.046   9.677   6.218
11014SOL    HW245102   2.100   9.526   6.251
11015SOL     OW45103   2.180   9.819   5.708
11015SOL    HW145104   2.275   9.826   5.677
11015SOL    HW245105   2.162   9.890   5.776
11016SOL     OW45106   3.649   9.443   6.893
11016SOL    HW145107   3.587   9.470   6.967
11016SOL    HW245108   3.607   9.463   6.805
11017SOL     OW45109   2.116   9.556   5.751
11017SOL    HW145110   2.153   9.501   5.676
11017SOL    HW245111   2.137   9.653   5.734
11018SOL     OW45112   1.992   9.809   6.309
11018SOL    HW145113   1.904   9.830   6.351
11018SOL    HW245114   2.066   9.844   6.367
11019SOL     OW45115   2.956   9.909   5.601
11019SOL    HW145116   2.950   9.996   5.554
11019SOL    HW245117   3.000   9.842   5.542
11020SOL     OW45118   2.706   9.818   5.686
11020SOL    HW145119   2.799   9.838   5.655
11020SOL    HW245120   2.702   9.723   5.716
11021SOL     OW45121   3.191   9.397   6.003
11021SOL    HW145122   3.116   9.385   6.068
11021SOL    HW245123   3.207   9.495   5.989
11022SOL     OW45124   3.281   9.678   7.073
11022SOL    HW145125   3.221   9.723   7.139
11022SOL    HW245126   3.229   9.609   7.023
11023SOL     OW45127   1.913   9.324   5.693
11023SOL    HW145128   1.986   9.257   5.705
11023SOL    HW245129   1.940   9.411   5.733
11024SOL     OW45130   2.491   9.894   6.687
11024SOL    HW145131   2.546   9.907   6.770
11024SOL    HW245132   2.403   9.854   6.711
11025SOL     OW45133   2.957   9.445   6.160
11025SOL    HW145134   2.917   9.537   6.161
11025SOL    HW245135   2.919   9.391   6.235
11026SOL     OW45136   2.472   9.282   6.408
11026SOL    HW145137   2.402   9.221   6.371
11026SOL    HW245138   2.548   9.228   6.443
11027SOL     OW45139   1.907   0.265   6.580
11027SOL    HW145140   1.989   0.277   6.636
11027SOL    HW245141   1.826   0.290   6.634
11028SOL     OW45142   2.136   9.236   6.014
11028SOL    HW145143   2.182   9.324   6.005
11028SOL    HW245144   2.039   9.251   6.035
11029SOL     OW45145   3.592   9.463   6.393
11029SOL    HW145146   3.565   9.466   6.489
11029SOL    HW245147   3.671   9.523   6.378
11030SOL     OW45148   3.096   9.876   5.847
11030SOL    HW145149   3.091   9.960   5.901
11030SOL    HW245150   3.041   9.886   5.764
11031SOL     OW45151   2.100   0.060   6.890
11031SOL    HW145152   2.090   9.976   6.945
11031SOL    HW245153   2.056   0.136   6.937
11032SOL     OW45154   2.399   9.575   7.333
11032SOL    HW145155   2.467   9.568   7.260
11032SOL    HW245156   2.409   9.663   7.379
11033SOL     OW45157   2.409   9.955   5.915
11033SOL    HW145158   2.401   0.007   5.830
11033SOL    HW245159   2.319   9.950   5.959
11034SOL     OW45160   3.196   9.448   6.930
11034SOL    HW145161   3.269   9.401   6.979
11034SOL    HW245162   3.125   9.382   6.904
11035SOL     OW45163   1.875   9.318   6.039
11035SOL    HW145164   1.780   9.291   6.029
11035SOL    HW245165   1.886   9.414   6.011
11036SOL     OW45166   3.126   9.299   7.354
11036SOL    HW145167   3.179   9.314   7.437
11036SOL    HW245168   3.088   9.386   7.322
11037SOL     OW45169   2.943   9.714   6.587
11037SOL    HW145170   3.031   9.746   6.622
11037SOL    HW245171   2.944   9.614   6.580
11038SOL     OW45172   2.847   9.408   6.421
11038SOL    HW145173   2.945   9.408   6.442
11038SOL    HW245174   2.802   9.336   6.474
11039SOL     OW45175   3.474   9.661   6.236
11039SOL    HW145176   3.503   9.742   6.288
11039SOL    HW245177   3.509   9.579   6.280
11040SOL     OW45178   2.645   9.329   5.654
11040SOL    HW145179   2.718   9.264   5.675
11040SOL    HW245180   2.661   9.415   5.702
11041SOL     OW45181   2.420   9.787   6.313
11041SOL    HW145182   2.473   9.739   6.383
11041SOL    HW245183   2.471   9.788   6.227
11042SOL     OW45184   1.995   9.783   7.307
11042SOL    HW145185   1.999   9.684   7.290
11042SOL    HW245186   2.047   9.805   7.389
11043SOL     OW45187   2.566   9.686   6.528
11043SOL    HW145188   2.665   9.674   6.518
11043SOL    HW245189   2.547   9.767   6.583
11044SOL     OW45190   2.016   9.910   6.678
11044SOL    HW145191   2.042   9.975   6.750
11044SOL    HW245192   2.061   9.936   6.592
11045SOL     OW45193   2.521   9.505   6.008
11045SOL    HW145194   2.422   9.493   6.007
11045SOL    HW245195   2.555   9.489   6.101
11046SOL     OW45196   3.480   9.244   6.273
11046SOL    HW145197   3.459   9.266   6.178
11046SOL    HW245198   3.521   9.324   6.317
11047SOL     OW45199   3.198   9.651   6.254
11047SOL    HW145200   3.174   9.652   6.156
11047SOL    HW245201   3.297   9.661   6.264
11048SOL     OW45202   3.499   9.853   8.813
11048SOL    HW145203   3.420   9.801   8.846
11048SOL    HW245204   3.578   9.831   8.870
11049SOL     OW45205   2.194   9.408   7.373
11049SOL    HW145206   2.117   9.440   7.319
11049SOL    HW245207   2.273   9.467   7.357
11050SOL     OW45208   3.043   9.308   8.707
11050SOL    HW145209   2.966   9.260   8.747
11050SOL    HW245210   3.091   9.248   8.644
11051SOL     OW45211   2.381   9.231   7.490
11051SOL    HW145212   2.472   9.271   7.496
11051SOL    HW245213   2.320   9.294   7.442
11052SOL     OW45214   2.612   9.808   7.925
11052SOL    HW145215   2.625   9.894   7.875
11052SOL    HW245216   2.557   9.745   7.870
11053SOL     OW45217   2.417   9.524   8.404
11053SOL    HW145218   2.471   9.608   8.411
11053SOL    HW245219   2.476   9.448   8.379
11054SOL     OW45220   3.558   9.554   8.497
11054SOL    HW145221   3.590   9.648   8.511
11054SOL    HW245222   3.458   9.553   8.492
11055SOL     OW45223   2.907   9.530   7.790
11055SOL    HW145224   2.883   9.597   7.861
11055SOL    HW245225   2.931   9.443   7.833
11056SOL     OW45226   2.428   9.814   7.468
11056SOL    HW145227   2.404   9.910   7.452
11056SOL    HW245228   2.523   9.810   7.501
11057SOL     OW45229   2.803   9.908   8.965
11057SOL    HW145230   2.821   9.834   9.029
11057SOL    HW245231   2.883   9.920   8.905
11058SOL     OW45232   3.056   9.534   7.560
11058SOL    HW145233   3.140   9.483   7.580
11058SOL    HW245234   3.005   9.546   7.645
11059SOL     OW45235   2.226   9.837   8.529
11059SOL    HW145236   2.213   9.740   8.546
11059SOL    HW245237   2.138   9.884   8.537
11060SOL     OW45238   3.267   9.976   8.704
11060SOL    HW145239   3.252   0.074   8.709
11060SOL    HW245240   3.361   9.955   8.732
11061SOL     OW45241   2.242   9.543   7.817
11061SOL    HW145242   2.188   9.574   7.895
11061SOL    HW245243   2.188   9.553   7.733
11062SOL     OW45244   3.631   9.815   8.567
11062SOL    HW145245   3.726   9.837   8.588
11062SOL    HW245246   3.574   9.832   8.648
11063SOL     OW45247   2.814   9.651   8.021
11063SOL    HW145248   2.876   9.697   8.083
11063SOL    HW245249   2.745   9.716   7.988
11064SOL     OW45250   2.961   9.636   9.198
11064SOL    HW145251   3.016   9.598   9.272
11064SOL    HW245252   2.879   9.581   9.185
11065SOL     OW45253   3.508   9.903   7.665
11065SOL    HW145254   3.604   9.911   7.640
11065SOL    HW245255   3.497   9.828   7.731
11066SOL     OW45256   2.613   9.272   9.088
11066SOL    HW145257   2.640   9.177   9.071
11066SOL    HW245258   2.628   9.294   9.185
11067SOL     OW45259   3.601   9.866   8.289
11067SOL    HW145260   3.549   9.947   8.261
11067SOL    HW245261   3.602   9.861   8.389
11068SOL     OW45262   3.252   9.188   8.271
11068SOL    HW145263   3.206   9.277   8.278
11068SOL    HW245264   3.341   9.200   8.227
11069SOL     OW45265   3.611   9.370   9.136
11069SOL    HW145266   3.585   9.348   9.230
11069SOL    HW245267   3.572   9.303   9.073
11070SOL     OW45268   2.231   9.456   8.202
11070SOL    HW145269   2.289   9.492   8.276
11070SOL    HW245270   2.253   9.359   8.187
11071SOL     OW45271   2.193   9.563   8.567
11071SOL    HW145272   2.124   9.497   8.538
11071SOL    HW245273   2.278   9.546   8.518
11072SOL     OW45274   2.919   0.288   8.655
11072SOL    HW145275   2.907   0.199   8.611
11072SOL    HW245276   2.838   0.309   8.710
11073SOL     OW45277   3.229   9.630   7.831
11073SOL    HW145278   3.176   9.700   7.784
11073SOL    HW245279   3.326   9.655   7.830
11074SOL     OW45280   1.948   9.845   8.909
11074SOL    HW145281   1.983   9.761   8.867
11074SOL    HW245282   1.967   9.843   9.008
11075SOL     OW45283   2.026   9.597   8.807
11075SOL    HW145284   2.098   9.591   8.738
11075SOL    HW245285   1.948   9.540   8.779
11076SOL     OW45286   2.850   0.026   8.563
11076SOL    HW145287   2.876   9.941   8.518
11076SOL    HW245288   2.766   0.012   8.616
11077SOL     OW45289   3.496   9.693   7.850
11077SOL    HW145290   3.585   9.651   7.835
11077SOL    HW245291   3.480   9.705   7.948
11078SOL     OW45292   2.684   9.577   7.644
11078SOL    HW145293   2.612   9.567   7.712
11078SOL    HW245294   2.773   9.558   7.686
11079SOL     OW45295   2.775   0.212   7.906
11079SOL    HW145296   2.727   0.142   7.853
11079SOL    HW245297   2.711   0.258   7.967
11080SOL     OW45298   1.907   9.529   7.819
11080SOL    HW145299   1.961   9.539   7.736
11080SOL    HW245300   1.962   9.557   7.898
11081SOL     OW45301   2.645   9.999   8.749
11081SOL    HW145302   2.639   0.097   8.765
11081SOL    HW245303   2.685   9.954   8.829
11082SOL     OW45304   2.223   9.904   8.258
11082SOL    HW145305   2.297   9.860   8.207
11082SOL    HW245306   2.230   9.880   8.355
11083SOL     OW45307   2.531   9.264   7.792
11083SOL    HW145308   2.439   9.227   7.804
11083SOL    HW245309   2.530   9.361   7.816
11084SOL     OW45310   3.455   9.511   8.943
11084SOL    HW145311   3.400   9.593   8.956
11084SOL    HW245312   3.513   9.497   9.023
11085SOL     OW45313   3.146   9.442   8.304
11085SOL    HW145314   3.159   9.503   8.226
11085SOL    HW245315   3.195   9.478   8.383
11086SOL     OW45316   3.270   9.343   7.594
11086SOL    HW145317   3.340   9.273   7.582
11086SOL    HW245318   3.228   9.334   7.684
11087SOL     OW45319   3.454   9.233   8.947
11087SOL    HW145320   3.442   9.189   8.858
11087SOL    HW245321   3.430   9.330   8.940
11088SOL     OW45322   2.579   9.526   8.107
11088SOL    HW145323   2.582   9.457   8.179
11088SOL    HW245324   2.672   9.560   8.089
11089SOL     OW45325   3.204   9.832   8.484
11089SOL    HW145326   3.213   9.893   8.405
11089SOL    HW245327   3.229   9.880   8.567
11090SOL     OW45328   3.443   9.263   7.855
11090SOL    HW145329   3.461   9.223   7.765
11090SOL    HW245330   3.348   9.294   7.859
11091SOL     OW45331   2.980   9.766   8.190
11091SOL    HW145332   3.074   9.736   8.174
11091SOL    HW245333   2.969   9.790   8.286
11092SOL     OW45334   3.659   9.852   9.043
11092SOL    HW145335   3.611   9.939   9.048
11092SOL    HW245336   3.642   9.799   9.126
11093SOL     OW45337   3.282   9.572   8.507
11093SOL    HW145338   3.257   9.668   8.491
11093SOL    HW245339   3.256   9.546   8.600
11094SOL     OW45340   3.449   9.551   7.553
11094SOL    HW145341   3.484   9.579   7.642
11094SOL    HW245342   3.384   9.476   7.564
11095SOL     OW45343   1.998   9.543   9.091
11095SOL    HW145344   2.005   9.549   8.992
11095SOL    HW245345   1.908   9.507   9.116
11096SOL     OW45346   2.075   9.589   8.025
11096SOL    HW145347   2.037   9.670   8.068
11096SOL    HW245348   2.129   9.537   8.092
11097SOL     OW45349   2.148   9.807   7.543
11097SOL    HW145350   2.246   9.807   7.524
11097SOL    HW245351   2.124   9.887   7.598
11098SOL     OW45352   3.647   9.455   8.745
11098SOL    HW145353   3.574   9.482   8.808
11098SOL    HW245354   3.620   9.478   8.651
11099SOL     OW45355   2.077   9.545   7.592
11099SOL    HW145356   2.122   9.492   7.520
11099SOL    HW245357   2.089   9.643   7.573
11100SOL     OW45358   1.983   9.802   8.156
11100SOL    HW145359   1.899   9.830   8.202
11100SOL    HW245360   2.061   9.850   8.196
11101SOL     OW45361   2.950   9.917   7.480
11101SOL    HW145362   2.957   0.017   7.480
11101SOL    HW245363   3.004   9.879   7.406
11102SOL     OW45364   2.698   9.835   7.559
11102SOL    HW145365   2.788   9.860   7.524
11102SOL    HW245366   2.697   9.738   7.583
11103SOL     OW45367   3.182   9.364   7.857
11103SOL    HW145368   3.111   9.348   7.925
11103SOL    HW245369   3.199   9.462   7.849
11104SOL     OW45370   3.278   9.727   8.919
11104SOL    HW145371   3.206   9.781   8.961
11104SOL    HW245372   3.238   9.660   8.856
11105SOL     OW45373   1.927   9.288   7.578
11105SOL    HW145374   2.005   9.228   7.593
11105SOL    HW245375   1.957   9.384   7.585
11106SOL     OW45376   2.483   9.950   8.528
11106SOL    HW145377   2.525   9.961   8.618
11106SOL    HW245378   2.390   9.915   8.537
11107SOL     OW45379   2.957   9.388   8.031
11107SOL    HW145380   2.915   9.479   8.040
11107SOL    HW245381   2.934   9.332   8.110
11108SOL     OW45382   2.613   9.349   8.311
11108SOL    HW145383   2.577   9.270   8.361
11108SOL    HW245384   2.713   9.341   8.305
11109SOL     OW45385   1.896   0.221   8.447
11109SOL    HW145386   1.974   0.272   8.482
11109SOL    HW245387   1.811   0.262   8.481
11110SOL     OW45388   2.197   9.274   7.849
11110SOL    HW145389   2.226   9.369   7.844
11110SOL    HW245390   2.109   9.268   7.896
11111SOL     OW45391   3.625   9.458   8.240
11111SOL    HW145392   3.608   9.482   8.336
11111SOL    HW245393   3.724   9.457   8.224
11112SOL     OW45394   3.103   9.840   7.714
11112SOL    HW145395   3.120   9.921   7.770
11112SOL    HW245396   3.036   9.862   7.643
11113SOL     OW45397   2.055   0.080   8.788
11113SOL    HW145398   2.025   9.999   8.838
11113SOL    HW245399   2.040   0.162   8.844
11114SOL     OW45400   2.403   9.586   9.178
11114SOL    HW145401   2.463   9.573   9.100
11114SOL    HW245402   2.422   9.675   9.221
11115SOL     OW45403   2.371   0.021   7.733
11115SOL    HW145404   2.367   0.044   7.635
11115SOL    HW245405   2.277   0.012   7.768
11116SOL     OW45406   3.214   9.508   8.766
11116SOL    HW145407   3.284   9.466   8.825
11116SOL    HW245408   3.142   9.442   8.748
11117SOL     OW45409   1.938   9.270   7.949
11117SOL    HW145410   1.872   9.201   7.919
11117SOL    HW245411   1.908   9.360   7.920
11118SOL     OW45412   3.153   9.382   9.113
11118SOL    HW145413   3.184   9.343   9.200
11118SOL    HW245414   3.110   9.471   9.129
11119SOL     OW45415   2.937   9.788   8.466
11119SOL    HW145416   3.036   9.793   8.481
11119SOL    HW245417   2.904   9.698   8.494
11120SOL     OW45418   2.892   9.321   8.304
11120SOL    HW145419   2.981   9.366   8.316
11120SOL    HW245420   2.879   9.253   8.376
11121SOL     OW45421   3.487   9.673   8.129
11121SOL    HW145422   3.526   9.749   8.181
11121SOL    HW245423   3.532   9.588   8.156
11122SOL     OW45424   2.634   9.330   7.534
11122SOL    HW145425   2.623   9.279   7.620
11122SOL    HW245426   2.653   9.426   7.554
11123SOL     OW45427   2.434   9.773   8.140
11123SOL    HW145428   2.453   9.675   8.151
11123SOL    HW245429   2.495   9.810   8.069
11124SOL     OW45430   1.989   9.802   9.184
11124SOL    HW145431   2.001   9.706   9.161
11124SOL    HW245432   2.052   9.827   9.258
11125SOL     OW45433   2.596   9.729   8.415
11125SOL    HW145434   2.642   9.751   8.328
11125SOL    HW245435   2.557   9.813   8.453
11126SOL     OW45436   1.989   9.979   8.546
11126SOL    HW145437   2.011   0.014   8.637
11126SOL    HW245438   1.954   0.053   8.489
11127SOL     OW45439   2.507   9.541   7.847
11127SOL    HW145440   2.408   9.546   7.834
11127SOL    HW245441   2.527   9.533   7.944
11128SOL     OW45442   3.483   9.247   8.129
11128SOL    HW145443   3.468   9.265   8.032
11128SOL    HW245444   3.536   9.322   8.169
11129SOL     OW45445   3.214   9.634   8.112
11129SOL    HW145446   3.201   9.632   8.013
11129SOL    HW245447   3.311   9.653   8.132
11130SOL     OW45448   2.198   9.430   9.241
11130SOL    HW145449   2.119   9.462   9.189
11130SOL    HW245450   2.278   9.486   9.218
11131SOL     OW45451   2.389   9.267   9.372
11131SOL    HW145452   2.482   9.303   9.362
11131SOL    HW245453   2.324   9.329   9.329
11132SOL     OW45454   2.499   9.797   9.731
11132SOL    HW145455   2.583   9.829   9.775
11132SOL    HW245456   2.514   9.707   9.691
11133SOL     OW45457   2.967   9.602   9.624
11133SOL    HW145458   3.011   9.691   9.636
11133SOL    HW245459   2.979   9.547   9.707
11134SOL     OW45460   2.444   9.825   9.310
11134SOL    HW145461   2.430   9.922   9.289
11134SOL    HW245462   2.535   9.814   9.352
11135SOL     OW45463   3.101   9.520   9.394
11135SOL    HW145464   3.150   9.434   9.400
11135SOL    HW245465   3.059   9.541   9.482
11136SOL     OW45466   2.247   9.483   9.709
11136SOL    HW145467   2.206   9.535   9.784
11136SOL    HW245468   2.212   9.516   9.622
11137SOL     OW45469   2.724   9.825   9.963
11137SOL    HW145470   2.822   9.818   9.976
11137SOL    HW245471   2.687   9.895   0.024
11138SOL     OW45472   2.720   9.551   9.515
11138SOL    HW145473   2.653   9.527   9.586
11138SOL    HW245474   2.811   9.561   9.557
11139SOL     OW45475   2.818   0.163   9.752
11139SOL    HW145476   2.769   0.103   9.689
11139SOL    HW245477   2.752   0.211   9.810
11140SOL     OW45478   1.940   9.602   9.686
11140SOL    HW145479   2.001   9.597   9.607
11140SOL    HW245480   1.993   9.619   9.768
11141SOL     OW45481   2.664   9.244   9.667
11141SOL    HW145482   2.630   9.183   9.596
11141SOL    HW245483   2.605   9.325   9.672
11142SOL     OW45484   3.233   9.274   9.355
11142SOL    HW145485   3.333   9.270   9.363
11142SOL    HW245486   3.193   9.191   9.395
11143SOL     OW45487   2.593   9.580   9.950
11143SOL    HW145488   2.637   9.507   0.001
11143SOL    HW245489   2.644   9.665   9.962
11144SOL     OW45490   3.370   9.187   9.632
11144SOL    HW145491   3.419   9.199   9.546
11144SOL    HW245492   3.322   9.272   9.655
11145SOL     OW45493   2.177   9.833   9.400
11145SOL    HW145494   2.272   9.828   9.369
11145SOL    HW245495   2.168   9.906   9.468
11146SOL     OW45496   2.126   9.576   9.480
11146SOL    HW145497   2.144   9.514   9.404
11146SOL    HW245498   2.143   9.670   9.451
11147SOL     OW45499   1.901   9.791   0.019
11147SOL    HW145500   1.813   9.765   9.981
11147SOL    HW245501   1.972   9.732   9.980
11148SOL     OW45502   2.956   9.873   9.344
11148SOL    HW145503   2.971   9.957   9.293
11148SOL    HW245504   2.969   9.794   9.284
11149SOL     OW45505   2.699   9.804   9.418
11149SOL    HW145506   2.791   9.834   9.393
11149SOL    HW245507   2.702   9.709   9.450
11150SOL     OW45508   3.241   9.427   9.692
11150SOL    HW145509   3.158   9.418   9.746
11150SOL    HW245510   3.279   9.519   9.703
11151SOL     OW45511   1.874   9.249   9.393
11151SOL    HW145512   1.964   9.205   9.383
11151SOL    HW245513   1.867   9.289   9.485
11152SOL     OW45514   3.001   9.429   9.838
11152SOL    HW145515   3.006   9.466   9.931
11152SOL    HW245516   2.954   9.341   9.839
11153SOL     OW45517   2.099   9.246   9.667
11153SOL    HW145518   2.160   9.319   9.696
11153SOL    HW245519   2.004   9.275   9.678
11154SOL     OW45520   3.690   9.420   0.172
11154SOL    HW145521   3.601   9.415   0.218
11154SOL    HW245522   3.677   9.456   0.080
11155SOL     OW45523   3.096   9.858   9.589
11155SOL    HW145524   3.116   9.950   9.622
11155SOL    HW245525   3.044   9.864   9.503
11156SOL     OW45526   2.402   0.126   9.559
11156SOL    HW145527   2.396   0.111   9.460
11156SOL    HW245528   2.316   0.099   9.601
11157SOL     OW45529   1.841   9.345   9.650
11157SOL    HW145530   1.753   9.317   9.688
11157SOL    HW245531   1.863   9.438   9.679
11158SOL     OW45532   2.655   9.342   9.348
11158SOL    HW145533   2.724   9.270   9.357
11158SOL    HW245534   2.681   9.421   9.404
11159SOL     OW45535   2.352   9.734   9.956
11159SOL    HW145536   2.423   9.672   9.990
11159SOL    HW245537   2.383   9.776   9.870
11160SOL     OW45538   2.525   9.496   9.702
11160SOL    HW145539   2.426   9.481   9.698
11160SOL    HW245540   2.552   9.519   9.795
11161SOL     OW45541   4.772   1.466   0.772
11161SOL    HW145542   4.866   1.501   0.774
11161SOL    HW245543   4.738   1.471   0.678
11162SOL     OW45544   4.011   0.249   0.011
11162SOL    HW145545   3.958   0.177   0.056
11162SOL    HW245546   4.006   0.238   9.912
11163SOL     OW45547   5.034   1.558   0.822
11163SOL    HW145548   5.049   1.656   0.839
11163SOL    HW245549   5.120   1.515   0.796
11164SOL     OW45550   4.866   0.050   1.273
11164SOL    HW145551   4.834   0.057   1.367
11164SOL    HW245552   4.791   0.019   1.215
11165SOL     OW45553   4.655   0.869   1.729
11165SOL    HW145554   4.637   0.801   1.658
11165SOL    HW245555   4.569   0.900   1.769
11166SOL     OW45556   4.257   1.483   0.421
11166SOL    HW145557   4.212   1.526   0.499
11166SOL    HW245558   4.317   1.410   0.454
11167SOL     OW45559   4.263   0.164   0.066
11167SOL    HW145560   4.332   0.232   0.042
11167SOL    HW245561   4.172   0.199   0.044
11168SOL     OW45562   5.279   1.034   1.524
11168SOL    HW145563   5.184   1.063   1.512
11168SOL    HW245564   5.335   1.070   1.449
11169SOL     OW45565   5.106   1.075   1.229
11169SOL    HW145566   5.063   1.076   1.320
11169SOL    HW245567   5.158   1.159   1.216
11170SOL     OW45568   4.695   1.356   1.466
11170SOL    HW145569   4.607   1.404   1.459
11170SOL    HW245570   4.693   1.275   1.408
11171SOL     OW45571   4.140   1.243   0.681
11171SOL    HW145572   4.097   1.198   0.759
11171SOL    HW245573   4.236   1.219   0.677
11172SOL     OW45574   4.383   0.659   0.596
11172SOL    HW145575   4.417   0.731   0.535
11172SOL    HW245576   4.371   0.575   0.544
11173SOL     OW45577   4.972   0.555   1.810
11173SOL    HW145578   5.067   0.528   1.798
11173SOL    HW245579   4.923   0.483   1.860
11174SOL     OW45580   4.132   1.417   0.181
11174SOL    HW145581   4.155   1.478   0.105
11174SOL    HW245582   4.173   1.451   0.265
11175SOL     OW45583   4.229   0.313   1.042
11175SOL    HW145584   4.288   0.393   1.032
11175SOL    HW245585   4.278   0.231   1.013
11176SOL     OW45586   4.026   0.799   0.533
11176SOL    HW145587   4.060   0.822   0.624
11176SOL    HW245588   3.930   0.771   0.539
11177SOL     OW45589   4.485   1.666   0.619
11177SOL    HW145590   4.552   1.604   0.578
11177SOL    HW245591   4.472   1.745   0.558
11178SOL     OW45592   4.740   0.314   0.286
11178SOL    HW145593   4.804   0.389   0.304
11178SOL    HW245594   4.712   0.272   0.372
11179SOL     OW45595   3.866   1.034   1.607
11179SOL    HW145596   3.957   1.065   1.633
11179SOL    HW245597   3.818   0.999   1.688
11180SOL     OW45598   4.151   0.697   0.089
11180SOL    HW145599   4.150   0.794   0.064
11180SOL    HW245600   4.169   0.642   0.007
11181SOL     OW45601   4.320   1.621   0.826
11181SOL    HW145602   4.387   1.642   0.755
11181SOL    HW245603   4.244   1.570   0.786
11182SOL     OW45604   4.624   0.642   1.561
11182SOL    HW145605   4.641   0.567   1.625
11182SOL    HW245606   4.698   0.648   1.495
11183SOL     OW45607   5.308   1.432   0.827
11183SOL    HW145608   5.335   1.467   0.917
11183SOL    HW245609   5.319   1.503   0.758
11184SOL     OW45610   3.998   1.260   0.445
11184SOL    HW145611   4.045   1.256   0.533
11184SOL    HW245612   4.054   1.214   0.376
11185SOL     OW45613   4.935   0.252   0.092
11185SOL    HW145614   5.014   0.201   0.126
11185SOL    HW245615   4.868   0.263   0.166
11186SOL     OW45616   4.013   0.532   1.279
11186SOL    HW145617   4.017   0.441   1.238
11186SOL    HW245618   3.956   0.591   1.221
11187SOL     OW45619   5.078   0.800   1.236
11187SOL    HW145620   5.093   0.898   1.237
11187SOL    HW245621   5.083   0.764   1.330
11188SOL     OW45622   4.095   0.297   0.459
11188SOL    HW145623   4.045   0.312   0.544
11188SOL    HW245624   4.040   0.327   0.382
11189SOL     OW45625   5.199   1.759   1.329
11189SOL    HW145626   5.120   1.758   1.268
11189SOL    HW245627   5.283   1.764   1.274
11190SOL     OW45628   5.458   0.647   1.248
11190SOL    HW145629   5.554   0.663   1.228
11190SOL    HW245630   5.433   0.695   1.332
11191SOL     OW45631   5.427   1.792   1.176
11191SOL    HW145632   5.498   1.797   1.246
11191SOL    HW245633   5.436   1.870   1.114
11192SOL     OW45634   4.625   0.529   0.688
11192SOL    HW145635   4.693   0.558   0.755
11192SOL    HW245636   4.572   0.608   0.658
11193SOL     OW45637   4.942   0.864   0.196
11193SOL    HW145638   4.963   0.817   0.282
11193SOL    HW245639   4.866   0.817   0.150
11194SOL     OW45640   4.644   0.446   1.745
11194SOL    HW145641   4.704   0.432   1.824
11194SOL    HW245642   4.575   0.374   1.743
11195SOL     OW45643   4.607   1.767   0.105
11195SOL    HW145644   4.624   1.758   0.006
11195SOL    HW245645   4.551   1.691   0.136
11196SOL     OW45646   4.493   0.109   1.728
11196SOL    HW145647   4.510   0.010   1.724
11196SOL    HW245648   4.502   0.140   1.823
11197SOL     OW45649   5.378   0.682   0.984
11197SOL    HW145650   5.371   0.781   0.978
11197SOL    HW245651   5.395   0.655   1.079
11198SOL     OW45652   4.797   1.321   1.737
11198SOL    HW145653   4.832   1.228   1.733
11198SOL    HW245654   4.748   1.342   1.653
11199SOL     OW45655   4.444   1.140   1.717
11199SOL    HW145656   4.385   1.219   1.735
11199SOL    HW245657   4.444   1.080   1.797
11200SOL     OW45658   5.045   0.027   0.890
11200SOL    HW145659   4.987   9.971   0.832
11200SOL    HW245660   5.131   0.048   0.843
11201SOL     OW45661   5.507   0.206   1.818
11201SOL    HW145662   5.432   0.252   1.865
11201SOL    HW245663   5.548   0.138   1.878
11202SOL     OW45664   3.771   0.721   0.594
11202SOL    HW145665   3.791   0.658   0.668
11202SOL    HW245666   3.737   0.807   0.631
11203SOL     OW45667   4.035   0.195   0.855
11203SOL    HW145668   4.104   0.244   0.908
11203SOL    HW245669   4.040   0.097   0.876
11204SOL     OW45670   4.007   0.268   1.196
11204SOL    HW145671   4.021   0.182   1.247
11204SOL    HW245672   4.084   0.283   1.135
11205SOL     OW45673   4.736   0.861   0.936
11205SOL    HW145674   4.810   0.913   0.893
11205SOL    HW245675   4.747   0.764   0.915
11206SOL     OW45676   3.915   1.524   0.380
11206SOL    HW145677   3.948   1.431   0.393
11206SOL    HW245678   3.983   1.577   0.329
11207SOL     OW45679   5.164   1.352   1.243
11207SOL    HW145680   5.119   1.382   1.159
11207SOL    HW245681   5.099   1.360   1.319
11208SOL     OW45682   3.844   1.578   0.641
11208SOL    HW145683   3.745   1.592   0.649
11208SOL    HW245684   3.869   1.571   0.545
11209SOL     OW45685   5.431   1.392   1.293
11209SOL    HW145686   5.449   1.424   1.386
11209SOL    HW245687   5.332   1.381   1.280
11210SOL     OW45688   4.148   0.968   0.046
11210SOL    HW145689   4.084   0.998   9.975
11210SOL    HW245690   4.149   1.034   0.121
11211SOL     OW45691   4.660   1.143   1.296
11211SOL    HW145692   4.701   1.056   1.270
11211SOL    HW245693   4.600   1.175   1.222
11212SOL     OW45694   3.763   0.757   0.200
11212SOL    HW145695   3.850   0.723   0.235
11212SOL    HW245696   3.691   0.740   0.267
11213SOL     OW45697   5.285   0.813   0.482
11213SOL    HW145698   5.352   0.770   0.544
11213SOL    HW245699   5.329   0.834   0.395
11214SOL     OW45700   4.560   1.842   1.005
11214SOL    HW145701   4.595   1.752   0.979
11214SOL    HW245702   4.478   1.830   1.061
11215SOL     OW45703   4.425   0.942   0.090
11215SOL    HW145704   4.474   0.857   0.112
11215SOL    HW245705   4.328   0.922   0.077
11216SOL     OW45706   5.056   0.373   0.495
11216SOL    HW145707   5.016   0.426   0.420
11216SOL    HW245708   5.154   0.395   0.502
11217SOL     OW45709   3.981   0.683   1.502
11217SOL    HW145710   3.990   0.611   1.432
11217SOL    HW245711   3.948   0.642   1.587
11218SOL     OW45712   3.845   0.262   1.451
11218SOL    HW145713   3.888   0.318   1.380
11218SOL    HW245714   3.749   0.248   1.428
11219SOL     OW45715   4.702   0.887   1.206
11219SOL    HW145716   4.714   0.879   1.107
11219SOL    HW245717   4.617   0.841   1.233
11220SOL     OW45718   5.324   0.417   0.521
11220SOL    HW145719   5.415   0.377   0.513
11220SOL    HW245720   5.315   0.464   0.608
11221SOL     OW45721   4.596   1.575   0.948
11221SOL    HW145722   4.657   1.536   0.879
11221SOL    HW245723   4.501   1.568   0.917
11222SOL     OW45724   4.501   0.459   0.262
11222SOL    HW145725   4.444   0.443   0.342
11222SOL    HW245726   4.587   0.408   0.272
11223SOL     OW45727   4.680   1.286   0.174
11223SOL    HW145728   4.736   1.277   0.256
11223SOL    HW245729   4.739   1.302   0.095
11224SOL     OW45730   5.311   1.656   0.675
11224SOL    HW145731   5.335   1.734   0.733
11224SOL    HW245732   5.289   1.689   0.583
11225SOL     OW45733   4.876   0.888   0.583
11225SOL    HW145734   4.914   0.908   0.673
11225SOL    HW245735   4.792   0.939   0.569
11226SOL     OW45736   4.546   1.599   1.644
11226SOL    HW145737   4.503   1.545   1.572
11226SOL    HW245738   4.542   1.549   1.730
11227SOL     OW45739   4.989   0.946   0.828
11227SOL    HW145740   5.026   0.868   0.877
11227SOL    HW245741   4.981   1.024   0.890
11228SOL     OW45742   4.014   1.120   0.890
11228SOL    HW145743   3.920   1.154   0.881
11228SOL    HW245744   4.033   1.099   0.986
11229SOL     OW45745   4.640   1.026   0.541
11229SOL    HW145746   4.587   0.959   0.489
11229SOL    HW245747   4.586   1.055   0.621
11230SOL     OW45748   4.969   1.378   1.437
11230SOL    HW145749   5.007   1.462   1.474
11230SOL    HW245750   4.870   1.379   1.446
11231SOL     OW45751   3.749   0.332   0.442
11231SOL    HW145752   3.808   0.352   0.364
11231SOL    HW245753   3.802   0.336   0.526
11232SOL     OW45754   4.484   0.776   1.353
11232SOL    HW145755   4.477   0.865   1.398
11232SOL    HW245756   4.529   0.711   1.414
11233SOL     OW45757   3.914   1.813   1.433
11233SOL    HW145758   3.915   1.908   1.464
11233SOL    HW245759   3.855   1.758   1.492
11234SOL     OW45760   4.482   0.838   0.411
11234SOL    HW145761   4.389   0.872   0.395
11234SOL    HW245762   4.517   0.797   0.327
11235SOL     OW45763   4.055   0.576   0.953
11235SOL    HW145764   4.114   0.531   0.885
11235SOL    HW245765   4.113   0.615   1.025
11236SOL     OW45766   4.092   1.731   0.277
11236SOL    HW145767   4.166   1.782   0.232
11236SOL    HW245768   4.085   1.761   0.372
11237SOL     OW45769   4.989   1.752   1.151
11237SOL    HW145770   5.026   1.770   1.060
11237SOL    HW245771   4.916   1.684   1.145
11238SOL     OW45772   3.743   1.203   0.927
11238SOL    HW145773   3.656   1.197   0.878
11238SOL    HW245774   3.743   1.138   1.003
11239SOL     OW45775   4.488   9.985   0.400
11239SOL    HW145776   4.538   9.961   0.317
11239SOL    HW245777   4.401   0.028   0.375
11240SOL     OW45778   3.738   1.147   0.484
11240SOL    HW145779   3.823   1.200   0.486
11240SOL    HW245780   3.727   1.106   0.393
11241SOL     OW45781   4.877   0.248   0.890
11241SOL    HW145782   4.923   0.330   0.856
11241SOL    HW245783   4.945   0.178   0.911
11242SOL     OW45784   5.144   0.095   0.173
11242SOL    HW145785   5.206   0.067   0.100
11242SOL    HW245786   5.114   0.014   0.223
11243SOL     OW45787   4.479   0.310   0.717
11243SOL    HW145788   4.504   0.257   0.798
11243SOL    HW245789   4.536   0.392   0.712
11244SOL     OW45790   5.090   0.740   0.972
11244SOL    HW145791   5.183   0.704   0.959
11244SOL    HW245792   5.073   0.753   1.070
11245SOL     OW45793   5.292   0.025   0.497
11245SOL    HW145794   5.320   9.983   0.410
11245SOL    HW245795   5.196   0.052   0.490
11246SOL     OW45796   4.268   1.368   1.771
11246SOL    HW145797   4.229   1.440   1.714
11246SOL    HW245798   4.356   1.400   1.808
11247SOL     OW45799   4.117   1.135   1.672
11247SOL    HW145800   4.161   1.116   1.584
11247SOL    HW245801   4.151   1.222   1.708
11248SOL     OW45802   3.805   1.403   1.104
11248SOL    HW145803   3.785   1.339   1.030
11248SOL    HW245804   3.727   1.407   1.167
11249SOL     OW45805   4.796   0.598   0.887
11249SOL    HW145806   4.888   0.566   0.864
11249SOL    HW245807   4.773   0.571   0.980
11250SOL     OW45808   5.450   0.621   1.685
11250SOL    HW145809   5.438   0.685   1.610
11250SOL    HW245810   5.548   0.604   1.699
11251SOL     OW45811   5.233   0.483   1.789
11251SOL    HW145812   5.313   0.529   1.749
11251SOL    HW245813   5.264   0.417   1.857
11252SOL     OW45814   5.025   0.736   0.420
11252SOL    HW145815   4.965   0.782   0.485
11252SOL    HW245816   5.121   0.751   0.445
11253SOL     OW45817   5.195   1.020   0.653
11253SOL    HW145818   5.226   0.945   0.595
11253SOL    HW245819   5.123   0.987   0.714
11254SOL     OW45820   5.448   0.813   1.485
11254SOL    HW145821   5.374   0.880   1.489
11254SOL    HW245822   5.536   0.860   1.496
11255SOL     OW45823   5.290   0.328   0.252
11255SOL    HW145824   5.300   0.359   0.347
11255SOL    HW245825   5.230   0.247   0.250
11256SOL     OW45826   4.439   1.471   1.429
11256SOL    HW145827   4.383   1.552   1.416
11256SOL    HW245828   4.400   1.394   1.377
11257SOL     OW45829   3.841   0.308   1.721
11257SOL    HW145830   3.846   0.286   1.623
11257SOL    HW245831   3.750   0.288   1.755
11258SOL     OW45832   3.761   1.686   1.632
11258SOL    HW145833   3.845   1.699   1.684
11258SOL    HW245834   3.682   1.693   1.693
11259SOL     OW45835   3.902   0.339   0.672
11259SOL    HW145836   3.881   0.428   0.714
11259SOL    HW245837   3.956   0.284   0.735
11260SOL     OW45838   5.085   1.605   1.526
11260SOL    HW145839   5.018   1.665   1.569
11260SOL    HW245840   5.133   1.654   1.454
11261SOL     OW45841   3.995   0.650   0.299
11261SOL    HW145842   4.062   0.668   0.227
11261SOL    HW245843   4.024   0.696   0.383
11262SOL     OW45844   4.166   1.851   0.763
11262SOL    HW145845   4.120   1.839   0.675
11262SOL    HW245846   4.208   1.765   0.791
11263SOL     OW45847   4.041   1.322   1.229
11263SOL    HW145848   4.036   1.349   1.325
11263SOL    HW245849   3.964   1.362   1.179
11264SOL     OW45850   4.871   1.572   1.834
11264SOL    HW145851   4.848   1.481   1.801
11264SOL    HW245852   4.879   1.635   1.756
11265SOL     OW45853   4.418   1.275   0.516
11265SOL    HW145854   4.438   1.220   0.435
11265SOL    HW245855   4.444   1.224   0.598
11266SOL     OW45856   4.084   0.866   0.792
11266SOL    HW145857   4.079   0.961   0.823
11266SOL    HW245858   4.170   0.826   0.824
11267SOL     OW45859   3.940   0.388   0.251
11267SOL    HW145860   3.968   0.358   0.160
11267SOL    HW245861   3.960   0.486   0.262
11268SOL     OW45862   3.821   0.563   0.811
11268SOL    HW145863   3.740   0.599   0.860
11268SOL    HW245864   3.901   0.573   0.870
11269SOL     OW45865   4.194   1.162   0.247
11269SOL    HW145866   4.292   1.156   0.262
11269SOL    HW245867   4.170   1.254   0.216
11270SOL     OW45868   4.785   0.706   0.003
11270SOL    HW145869   4.812   0.786   9.949
11270SOL    HW245870   4.855   0.635   9.993
11271SOL     OW45871   4.561   0.715   0.172
11271SOL    HW145872   4.642   0.709   0.113
11271SOL    HW245873   4.534   0.624   0.201
11272SOL     OW45874   5.028   0.103   0.483
11272SOL    HW145875   4.958   0.083   0.552
11272SOL    HW245876   5.043   0.201   0.478
11273SOL     OW45877   5.055   0.698   1.496
11273SOL    HW145878   5.057   0.762   1.573
11273SOL    HW245879   5.092   0.609   1.526
11274SOL     OW45880   3.876   0.054   0.146
11274SOL    HW145881   3.866   9.963   0.106
11274SOL    HW245882   3.901   0.045   0.242
11275SOL     OW45883   4.050   1.060   1.156
11275SOL    HW145884   4.044   1.000   1.236
11275SOL    HW245885   4.054   1.155   1.187
11276SOL     OW45886   4.262   0.678   1.208
11276SOL    HW145887   4.330   0.722   1.267
11276SOL    HW245888   4.188   0.642   1.265
11277SOL     OW45889   4.502   1.018   1.483
11277SOL    HW145890   4.567   1.068   1.425
11277SOL    HW245891   4.495   1.062   1.572
11278SOL     OW45892   4.861   1.052   1.701
11278SOL    HW145893   4.781   0.993   1.705
11278SOL    HW245894   4.940   1.004   1.739
11279SOL     OW45895   4.830   0.100   0.661
11279SOL    HW145896   4.838   0.156   0.744
11279SOL    HW245897   4.753   0.134   0.607
11280SOL     OW45898   4.890   1.760   1.634
11280SOL    HW145899   4.814   1.764   1.569
11280SOL    HW245900   4.913   1.852   1.664
11281SOL     OW45901   4.357   0.099   0.944
11281SOL    HW145902   4.338   0.014   0.895
11281SOL    HW245903   4.455   0.117   0.945
11282SOL     OW45904   4.073   1.726   1.226
11282SOL    HW145905   4.019   1.695   1.148
11282SOL    HW245906   4.012   1.758   1.298
11283SOL     OW45907   4.697   1.231   0.891
11283SOL    HW145908   4.727   1.316   0.848
11283SOL    HW245909   4.776   1.185   0.932
11284SOL     OW45910   4.337   1.005   0.959
11284SOL    HW145911   4.352   0.911   0.926
11284SOL    HW245912   4.263   1.005   1.026
11285SOL     OW45913   3.761   1.026   1.130
11285SOL    HW145914   3.855   1.032   1.164
11285SOL    HW245915   3.755   0.953   1.062
11286SOL     OW45916   3.936   9.993   0.405
11286SOL    HW145917   3.994   0.021   0.482
11286SOL    HW245918   3.840   0.003   0.431
11287SOL     OW45919   4.375   0.674   1.686
11287SOL    HW145920   4.323   0.729   1.620
11287SOL    HW245921   4.465   0.652   1.648
11288SOL     OW45922   3.752   1.046   0.221
11288SOL    HW145923   3.772   0.951   0.199
11288SOL    HW245924   3.816   1.105   0.171
11289SOL     OW45925   5.467   0.274   0.818
11289SOL    HW145926   5.522   0.253   0.900
11289SOL    HW245927   5.528   0.299   0.743
11290SOL     OW45928   4.496   1.198   1.078
11290SOL    HW145929   4.443   1.123   1.038
11290SOL    HW245930   4.569   1.224   1.015
11291SOL     OW45931   4.939   0.513   0.286
11291SOL    HW145932   4.965   0.596   0.336
11291SOL    HW245933   4.966   0.522   0.191
11292SOL     OW45934   5.253   1.472   1.696
11292SOL    HW145935   5.217   1.386   1.732
11292SOL    HW245936   5.185   1.513   1.634
11293SOL     OW45937   3.934   0.910   1.365
11293SOL    HW145938   3.952   0.823   1.410
11293SOL    HW245939   3.907   0.978   1.433
11294SOL     OW45940   4.448   1.385   0.068
11294SOL    HW145941   4.419   1.473   0.104
11294SOL    HW245942   4.536   1.360   0.106
11295SOL     OW45943   4.310   1.751   1.080
11295SOL    HW145944   4.304   1.695   0.997
11295SOL    HW245945   4.224   1.747   1.130
11296SOL     OW45946   4.481   1.134   0.747
11296SOL    HW145947   4.561   1.171   0.795
11296SOL    HW245948   4.425   1.083   0.812
11297SOL     OW45949   4.639   1.448   0.528
11297SOL    HW145950   4.706   1.391   0.481
11297SOL    HW245951   4.550   1.402   0.527
11298SOL     OW45952   3.829   0.859   0.913
11298SOL    HW145953   3.919   0.846   0.872
11298SOL    HW245954   3.765   0.894   0.845
11299SOL     OW45955   3.717   0.942   1.812
11299SOL    HW145956   3.619   0.933   1.793
11299SOL    HW245957   3.741   0.888   1.892
11300SOL     OW45958   4.674   1.763   1.461
11300SOL    HW145959   4.635   1.698   1.526
11300SOL    HW245960   4.601   1.822   1.425
11301SOL     OW45961   4.941   1.145   1.011
11301SOL    HW145962   4.955   1.244   1.018
11301SOL    HW245963   4.983   1.100   1.091
11302SOL     OW45964   4.231   0.421   1.802
11302SOL    HW145965   4.295   0.403   1.728
11302SOL    HW245966   4.237   0.517   1.829
11303SOL     OW45967   4.226   0.918   0.385
11303SOL    HW145968   4.194   1.004   0.344
11303SOL    HW245969   4.152   0.877   0.438
11304SOL     OW45970   5.337   0.954   1.002
11304SOL    HW145971   5.348   1.034   0.943
11304SOL    HW245972   5.285   0.980   1.083
11305SOL     OW45973   3.675   0.065   0.447
11305SOL    HW145974   3.582   0.049   0.479
11305SOL    HW245975   3.693   0.164   0.445
11306SOL     OW45976   4.161   1.579   1.630
11306SOL    HW145977   4.101   1.642   1.680
11306SOL    HW245978   4.207   1.628   1.557
11307SOL     OW45979   5.484   1.471   1.548
11307SOL    HW145980   5.536   1.554   1.570
11307SOL    HW245981   5.402   1.467   1.604
11308SOL     OW45982   4.692   0.547   1.143
11308SOL    HW145983   4.733   0.600   1.217
11308SOL    HW245984   4.699   0.449   1.164
11309SOL     OW45985   4.112   1.515   0.682
11309SOL    HW145986   4.116   1.416   0.684
11309SOL    HW245987   4.016   1.545   0.674
11310SOL     OW45988   4.776   1.573   1.156
11310SOL    HW145989   4.732   1.575   1.245
11310SOL    HW245990   4.706   1.572   1.084
11311SOL     OW45991   3.989   1.749   1.773
11311SOL    HW145992   4.027   1.841   1.762
11311SOL    HW245993   3.979   1.729   1.871
11312SOL     OW45994   3.819   1.303   1.657
11312SOL    HW145995   3.816   1.207   1.631
11312SOL    HW245996   3.746   1.352   1.609
11313SOL     OW45997   3.926   1.633   1.014
11313SOL    HW145998   3.884   1.547   1.045
11313SOL    HW245999   3.926   1.636   0.914
11314SOL     OW46000   4.623   0.167   0.943
11314SOL    HW146001   4.710   0.209   0.917
11314SOL    HW246002   4.640   0.083   0.993
11315SOL     OW46003   4.787   1.237   0.427
11315SOL    HW146004   4.882   1.233   0.459
11315SOL    HW246005   4.736   1.159   0.463
11316SOL     OW46006   5.294   0.488   0.798
11316SOL    HW146007   5.323   0.563   0.857
11316SOL    HW246008   5.352   0.408   0.815
11317SOL     OW46009   4.466   1.143   0.275
11317SOL    HW146010   4.543   1.199   0.244
11317SOL    HW246011   4.463   1.059   0.222
11318SOL     OW46012   4.617   0.150   0.062
11318SOL    HW146013   4.613   0.060   0.105
11318SOL    HW246014   4.650   0.218   0.127
11319SOL     OW46015   4.227   0.470   0.765
11319SOL    HW146016   4.296   0.399   0.770
11319SOL    HW246017   4.260   0.545   0.706
11320SOL     OW46018   4.244   1.080   1.435
11320SOL    HW146019   4.336   1.048   1.456
11320SOL    HW246020   4.249   1.160   1.375
11321SOL     OW46021   5.433   1.116   1.315
11321SOL    HW146022   5.439   1.215   1.306
11321SOL    HW246023   5.499   1.073   1.253
11322SOL     OW46024   3.921   1.255   0.092
11322SOL    HW146025   3.834   1.301   0.075
11322SOL    HW246026   3.983   1.317   0.140
11323SOL     OW46027   4.379   1.619   0.196
11323SOL    HW146028   4.347   1.712   0.178
11323SOL    HW246029   4.347   1.589   0.285
11324SOL     OW46030   5.018   1.115   1.483
11324SOL    HW146031   4.958   1.083   1.557
11324SOL    HW246032   5.003   1.213   1.469
11325SOL     OW46033   4.279   1.693   1.407
11325SOL    HW146034   4.340   1.771   1.392
11325SOL    HW246035   4.205   1.695   1.340
11326SOL     OW46036   3.906   0.574   1.742
11326SOL    HW146037   3.891   0.476   1.742
11326SOL    HW246038   3.985   0.595   1.800
11327SOL     OW46039   5.389   1.541   1.062
11327SOL    HW146040   5.400   1.637   1.090
11327SOL    HW246041   5.410   1.481   1.139
11328SOL     OW46042   3.680   0.958   0.688
11328SOL    HW146043   3.710   1.030   0.626
11328SOL    HW246044   3.580   0.954   0.689
11329SOL     OW46045   4.218   0.815   1.521
11329SOL    HW146046   4.128   0.772   1.518
11329SOL    HW246047   4.211   0.908   1.483
11330SOL     OW46048   5.368   1.163   0.813
11330SOL    HW146049   5.344   1.260   0.819
11330SOL    HW246050   5.304   1.117   0.751
11331SOL     OW46051   4.419   0.544   1.034
11331SOL    HW146052   4.515   0.544   1.061
11331SOL    HW246053   4.365   0.594   1.102
11332SOL     OW46054   4.315   1.288   1.267
11332SOL    HW146055   4.225   1.315   1.230
11332SOL    HW246056   4.376   1.265   1.191
11333SOL     OW46057   3.853   0.727   1.162
11333SOL    HW146058   3.873   0.801   1.226
11333SOL    HW246059   3.853   0.763   1.068
11334SOL     OW46060   4.021   1.389   1.490
11334SOL    HW146061   4.076   1.460   1.534
11334SOL    HW246062   3.952   1.357   1.553
11335SOL     OW46063   5.350   1.719   1.779
11335SOL    HW146064   5.316   1.625   1.768
11335SOL    HW246065   5.312   1.776   1.706
11336SOL     OW46066   5.048   1.199   0.497
11336SOL    HW146067   5.104   1.148   0.561
11336SOL    HW246068   5.058   1.160   0.405
11337SOL     OW46069   4.350   0.407   0.487
11337SOL    HW146070   4.257   0.371   0.473
11337SOL    HW246071   4.393   0.360   0.564
11338SOL     OW46072   5.286   0.077   0.767
11338SOL    HW146073   5.285   0.063   0.668
11338SOL    HW246074   5.343   0.156   0.789
11339SOL     OW46075   4.808   0.685   1.365
11339SOL    HW146076   4.900   0.683   1.404
11339SOL    HW246077   4.797   0.768   1.311
11340SOL     OW46078   4.337   0.751   0.854
11340SOL    HW146079   4.367   0.677   0.914
11340SOL    HW246080   4.359   0.728   0.759
11341SOL     OW46081   4.976   1.414   1.046
11341SOL    HW146082   4.902   1.462   1.094
11341SOL    HW246083   4.999   1.463   0.963
11342SOL     OW46084   5.019   0.449   0.770
11342SOL    HW146085   5.012   0.426   0.672
11342SOL    HW246086   5.114   0.471   0.792
11343SOL     OW46087   4.788   1.470   2.585
11343SOL    HW146088   4.883   1.500   2.586
11343SOL    HW246089   4.749   1.487   2.494
11344SOL     OW46090   5.319   1.287   2.397
11344SOL    HW146091   5.325   1.354   2.471
11344SOL    HW246092   5.411   1.253   2.376
11345SOL     OW46093   5.321   0.605   3.248
11345SOL    HW146094   5.228   0.582   3.276
11345SOL    HW246095   5.379   0.612   3.329
11346SOL     OW46096   4.038   0.268   1.904
11346SOL    HW146097   3.964   0.263   1.837
11346SOL    HW246098   4.112   0.324   1.866
11347SOL     OW46099   5.050   1.557   2.649
11347SOL    HW146100   5.056   1.654   2.673
11347SOL    HW246101   5.141   1.523   2.626
11348SOL     OW46102   4.896   0.019   3.193
11348SOL    HW146103   4.827   0.032   3.122
11348SOL    HW246104   4.987   0.024   3.152
11349SOL     OW46105   4.614   0.945   3.546
11349SOL    HW146106   4.557   0.972   3.469
11349SOL    HW246107   4.557   0.939   3.628
11350SOL     OW46108   4.253   1.485   2.262
11350SOL    HW146109   4.214   1.514   2.349
11350SOL    HW246110   4.327   1.419   2.279
11351SOL     OW46111   4.242   0.111   2.001
11351SOL    HW146112   4.324   0.162   1.976
11351SOL    HW246113   4.161   0.159   1.969
11352SOL     OW46114   5.271   1.061   3.375
11352SOL    HW146115   5.176   1.082   3.351
11352SOL    HW246116   5.332   1.097   3.304
11353SOL     OW46117   5.155   1.061   3.060
11353SOL    HW146118   5.094   1.060   3.140
11353SOL    HW246119   5.188   1.154   3.045
11354SOL     OW46120   4.678   1.399   3.306
11354SOL    HW146121   4.596   1.456   3.301
11354SOL    HW246122   4.665   1.316   3.252
11355SOL     OW46123   4.157   1.241   2.510
11355SOL    HW146124   4.103   1.193   2.579
11355SOL    HW246125   4.252   1.208   2.514
11356SOL     OW46126   4.373   0.642   2.429
11356SOL    HW146127   4.412   0.714   2.372
11356SOL    HW246128   4.352   0.563   2.372
11357SOL     OW46129   4.118   1.401   2.020
11357SOL    HW146130   4.175   1.414   1.939
11357SOL    HW246131   4.161   1.444   2.099
11358SOL     OW46132   4.243   0.373   2.907
11358SOL    HW146133   4.300   0.454   2.890
11358SOL    HW246134   4.292   0.291   2.879
11359SOL     OW46135   4.014   0.773   2.343
11359SOL    HW146136   4.048   0.804   2.432
11359SOL    HW246137   3.920   0.740   2.353
11360SOL     OW46138   4.481   1.710   2.451
11360SOL    HW146139   4.544   1.643   2.411
11360SOL    HW246140   4.461   1.781   2.384
11361SOL     OW46141   5.481   1.633   2.259
11361SOL    HW146142   5.572   1.592   2.250
11361SOL    HW246143   5.457   1.681   2.175
11362SOL     OW46144   5.312   0.239   3.004
11362SOL    HW146145   5.396   0.256   2.952
11362SOL    HW246146   5.237   0.293   2.964
11363SOL     OW46147   4.722   0.430   2.226
11363SOL    HW146148   4.795   0.492   2.254
11363SOL    HW246149   4.712   0.358   2.295
11364SOL     OW46150   4.177   0.702   1.867
11364SOL    HW146151   4.155   0.799   1.877
11364SOL    HW246152   4.254   0.691   1.805
11365SOL     OW46153   4.362   1.619   2.671
11365SOL    HW146154   4.414   1.658   2.595
11365SOL    HW246155   4.281   1.572   2.636
11366SOL     OW46156   5.319   1.457   2.635
11366SOL    HW146157   5.323   1.477   2.732
11366SOL    HW246158   5.377   1.521   2.585
11367SOL     OW46159   3.976   1.290   2.305
11367SOL    HW146160   4.044   1.274   2.377
11367SOL    HW246161   3.995   1.229   2.228
11368SOL     OW46162   4.803   0.392   1.966
11368SOL    HW146163   4.841   0.299   1.967
11368SOL    HW246164   4.774   0.417   2.058
11369SOL     OW46165   5.162   0.783   3.098
11369SOL    HW146166   5.184   0.879   3.085
11369SOL    HW246167   5.239   0.737   3.143
11370SOL     OW46168   4.057   0.300   2.308
11370SOL    HW146169   4.002   0.312   2.390
11370SOL    HW246170   4.011   0.341   2.230
11371SOL     OW46171   5.239   1.753   3.156
11371SOL    HW146172   5.160   1.757   3.094
11371SOL    HW246173   5.323   1.746   3.102
11372SOL     OW46174   5.446   0.576   3.005
11372SOL    HW146175   5.537   0.616   3.019
11372SOL    HW246176   5.397   0.575   3.092
11373SOL     OW46177   5.495   1.741   3.016
11373SOL    HW146178   5.532   1.774   3.103
11373SOL    HW246179   5.570   1.724   2.952
11374SOL     OW46180   4.558   0.510   2.583
11374SOL    HW146181   4.651   0.546   2.593
11374SOL    HW246182   4.507   0.567   2.519
11375SOL     OW46183   4.948   0.980   2.003
11375SOL    HW146184   4.980   0.945   2.092
11375SOL    HW246185   4.893   0.910   1.958
11376SOL     OW46186   5.457   0.701   2.222
11376SOL    HW146187   5.404   0.619   2.241
11376SOL    HW246188   5.528   0.712   2.292
11377SOL     OW46189   4.691   1.720   1.994
11377SOL    HW146190   4.737   1.673   1.919
11377SOL    HW246191   4.719   1.678   2.081
11378SOL     OW46192   5.392   0.677   2.758
11378SOL    HW146193   5.355   0.769   2.769
11378SOL    HW246194   5.404   0.635   2.848
11379SOL     OW46195   4.799   1.350   3.571
11379SOL    HW146196   4.836   1.258   3.555
11379SOL    HW246197   4.748   1.379   3.490
11380SOL     OW46198   4.421   1.207   3.595
11380SOL    HW146199   4.358   1.285   3.593
11380SOL    HW246200   4.491   1.222   3.665
11381SOL     OW46201   5.077   0.024   2.744
11381SOL    HW146202   5.020   0.105   2.736
11381SOL    HW246203   5.164   0.039   2.696
11382SOL     OW46204   3.759   0.705   2.432
11382SOL    HW146205   3.776   0.648   2.512
11382SOL    HW246206   3.726   0.795   2.461
11383SOL     OW46207   4.007   0.147   2.678
11383SOL    HW146208   4.007   0.176   2.773
11383SOL    HW246209   4.031   0.050   2.673
11384SOL     OW46210   4.003   0.217   2.945
11384SOL    HW146211   3.972   0.191   3.036
11384SOL    HW246212   4.088   0.268   2.952
11385SOL     OW46213   4.785   0.845   2.792
11385SOL    HW146214   4.812   0.923   2.735
11385SOL    HW246215   4.781   0.763   2.736
11386SOL     OW46216   3.889   1.547   2.237
11386SOL    HW146217   3.920   1.453   2.251
11386SOL    HW246218   3.935   1.586   2.157
11387SOL     OW46219   5.162   1.346   3.076
11387SOL    HW146220   5.122   1.375   2.989
11387SOL    HW246221   5.095   1.359   3.149
11388SOL     OW46222   3.905   1.636   2.498
11388SOL    HW146223   3.812   1.645   2.532
11388SOL    HW246224   3.904   1.614   2.401
11389SOL     OW46225   5.428   1.392   3.116
11389SOL    HW146226   5.451   1.425   3.207
11389SOL    HW246227   5.329   1.377   3.109
11390SOL     OW46228   4.160   0.972   1.889
11390SOL    HW146229   4.137   1.023   1.806
11390SOL    HW246230   4.150   1.032   1.969
11391SOL     OW46231   4.635   1.175   3.152
11391SOL    HW146232   4.695   1.097   3.134
11391SOL    HW246233   4.582   1.196   3.070
11392SOL     OW46234   3.773   0.811   2.045
11392SOL    HW146235   3.856   0.755   2.050
11392SOL    HW246236   3.701   0.769   2.099
11393SOL     OW46237   5.301   0.926   2.251
11393SOL    HW146238   5.358   0.845   2.238
11393SOL    HW246239   5.317   0.991   2.176
11394SOL     OW46240   4.571   1.834   2.860
11394SOL    HW146241   4.613   1.753   2.819
11394SOL    HW246242   4.499   1.805   2.923
11395SOL     OW46243   4.436   0.937   1.912
11395SOL    HW146244   4.471   0.853   1.953
11395SOL    HW246245   4.337   0.930   1.902
11396SOL     OW46246   5.064   0.434   2.275
11396SOL    HW146247   5.017   0.506   2.223
11396SOL    HW246248   5.162   0.452   2.276
11397SOL     OW46249   4.745   0.929   3.051
11397SOL    HW146250   4.766   0.900   2.958
11397SOL    HW246251   4.658   0.889   3.080
11398SOL     OW46252   5.337   0.464   2.312
11398SOL    HW146253   5.421   0.410   2.299
11398SOL    HW246254   5.320   0.474   2.410
11399SOL     OW46255   4.628   1.579   2.774
11399SOL    HW146256   4.687   1.542   2.702
11399SOL    HW246257   4.532   1.575   2.744
11400SOL     OW46258   4.481   0.456   2.112
11400SOL    HW146259   4.410   0.434   2.179
11400SOL    HW246260   4.571   0.451   2.155
11401SOL     OW46261   4.680   1.300   2.007
11401SOL    HW146262   4.732   1.278   2.090
11401SOL    HW246263   4.742   1.297   1.928
11402SOL     OW46264   5.468   1.655   2.528
11402SOL    HW146265   5.420   1.737   2.559
11402SOL    HW246266   5.469   1.652   2.429
11403SOL     OW46267   4.901   0.921   2.457
11403SOL    HW146268   4.946   0.954   2.540
11403SOL    HW246269   4.810   0.962   2.449
11404SOL     OW46270   4.532   1.658   3.489
11404SOL    HW146271   4.488   1.609   3.415
11404SOL    HW246272   4.542   1.598   3.568
11405SOL     OW46273   5.043   0.993   2.682
11405SOL    HW146274   5.123   0.960   2.732
11405SOL    HW246275   4.994   1.059   2.738
11406SOL     OW46276   4.010   1.114   2.701
11406SOL    HW146277   3.912   1.128   2.717
11406SOL    HW246278   4.057   1.111   2.789
11407SOL     OW46279   4.645   1.019   2.406
11407SOL    HW146280   4.598   0.949   2.352
11407SOL    HW246281   4.579   1.065   2.465
11408SOL     OW46282   4.955   1.387   3.259
11408SOL    HW146283   5.000   1.470   3.292
11408SOL    HW246284   4.857   1.395   3.274
11409SOL     OW46285   3.719   0.360   2.289
11409SOL    HW146286   3.777   0.384   2.211
11409SOL    HW246287   3.776   0.354   2.372
11410SOL     OW46288   5.400   1.793   2.039
11410SOL    HW146289   5.482   1.848   2.042
11410SOL    HW246290   5.389   1.753   1.947
11411SOL     OW46291   3.759   1.853   3.247
11411SOL    HW146292   3.712   1.941   3.247
11411SOL    HW246293   3.740   1.804   3.333
11412SOL     OW46294   4.482   0.836   2.269
11412SOL    HW146295   4.390   0.872   2.252
11412SOL    HW246296   4.518   0.797   2.184
11413SOL     OW46297   4.036   0.554   2.817
11413SOL    HW146298   4.083   0.554   2.729
11413SOL    HW246299   4.083   0.491   2.879
11414SOL     OW46300   3.984   1.768   2.056
11414SOL    HW146301   4.079   1.790   2.032
11414SOL    HW246302   3.964   1.804   2.147
11415SOL     OW46303   5.012   1.755   2.994
11415SOL    HW146304   5.041   1.778   2.901
11415SOL    HW246305   4.939   1.687   2.990
11416SOL     OW46306   3.752   1.154   2.809
11416SOL    HW146307   3.663   1.155   2.762
11416SOL    HW246308   3.752   1.080   2.877
11417SOL     OW46309   4.521   0.039   2.188
11417SOL    HW146310   4.545   9.944   2.168
11417SOL    HW246311   4.428   0.043   2.225
11418SOL     OW46312   3.713   1.183   2.343
11418SOL    HW146313   3.792   1.241   2.361
11418SOL    HW246314   3.720   1.144   2.252
11419SOL     OW46315   5.196   0.336   3.433
11419SOL    HW146316   5.145   0.418   3.408
11419SOL    HW246317   5.259   0.358   3.508
11420SOL     OW46318   4.934   0.265   2.735
11420SOL    HW146319   4.964   0.329   2.664
11420SOL    HW246320   4.977   0.290   2.822
11421SOL     OW46321   5.228   0.058   2.072
11421SOL    HW146322   5.214   9.968   2.031
11421SOL    HW246323   5.149   0.081   2.129
11422SOL     OW46324   5.222   0.056   3.384
11422SOL    HW146325   5.320   0.037   3.377
11422SOL    HW246326   5.208   0.146   3.426
11423SOL     OW46327   4.427   0.273   2.558
11423SOL    HW146328   4.407   0.223   2.642
11423SOL    HW246329   4.480   0.355   2.579
11424SOL     OW46330   5.004   0.622   2.937
11424SOL    HW146331   4.975   0.680   2.860
11424SOL    HW246332   5.065   0.675   2.996
11425SOL     OW46333   5.290   0.041   2.348
11425SOL    HW146334   5.320   0.023   2.254
11425SOL    HW246335   5.199   0.083   2.347
11426SOL     OW46336   4.266   1.432   3.606
11426SOL    HW146337   4.209   1.495   3.553
11426SOL    HW246338   4.342   1.482   3.646
11427SOL     OW46339   3.816   1.378   2.959
11427SOL    HW146340   3.801   1.304   2.893
11427SOL    HW246341   3.740   1.381   3.024
11428SOL     OW46342   4.808   0.601   2.656
11428SOL    HW146343   4.890   0.556   2.619
11428SOL    HW246344   4.785   0.561   2.744
11429SOL     OW46345   5.489   0.639   3.482
11429SOL    HW146346   5.483   0.729   3.440
11429SOL    HW246347   5.583   0.620   3.509
11430SOL     OW46348   5.048   0.354   2.969
11430SOL    HW146349   5.040   0.454   2.959
11430SOL    HW246350   5.028   0.329   3.063
11431SOL     OW46351   5.383   0.425   3.610
11431SOL    HW146352   5.417   0.508   3.566
11431SOL    HW246353   5.381   0.439   3.709
11432SOL     OW46354   5.036   0.866   2.234
11432SOL    HW146355   4.986   0.887   2.317
11432SOL    HW246356   5.133   0.889   2.246
11433SOL     OW46357   5.280   0.989   2.515
11433SOL    HW146358   5.284   0.974   2.416
11433SOL    HW246359   5.184   0.986   2.545
11434SOL     OW46360   5.484   0.876   3.359
11434SOL    HW146361   5.403   0.934   3.347
11434SOL    HW246362   5.565   0.933   3.372
11435SOL     OW46363   5.313   0.308   1.992
11435SOL    HW146364   5.331   0.358   2.077
11435SOL    HW246365   5.284   0.215   2.014
11436SOL     OW46366   4.422   1.546   3.266
11436SOL    HW146367   4.357   1.622   3.264
11436SOL    HW246368   4.404   1.484   3.190
11437SOL     OW46369   3.740   1.703   3.483
11437SOL    HW146370   3.816   1.728   3.543
11437SOL    HW246371   3.654   1.705   3.535
11438SOL     OW46372   3.875   0.320   2.513
11438SOL    HW146373   3.864   0.404   2.564
11438SOL    HW246374   3.920   0.251   2.570
11439SOL     OW46375   5.085   1.608   3.343
11439SOL    HW146376   5.025   1.675   3.388
11439SOL    HW246377   5.145   1.655   3.279
11440SOL     OW46378   4.004   0.663   2.082
11440SOL    HW146379   4.079   0.676   2.018
11440SOL    HW246380   4.030   0.701   2.171
11441SOL     OW46381   5.406   0.272   3.258
11441SOL    HW146382   5.331   0.305   3.315
11441SOL    HW246383   5.374   0.260   3.164
11442SOL     OW46384   4.109   1.829   2.527
11442SOL    HW146385   4.037   1.759   2.525
11442SOL    HW246386   4.189   1.795   2.478
11443SOL     OW46387   4.079   1.353   3.046
11443SOL    HW146388   4.074   1.364   3.145
11443SOL    HW246389   3.989   1.367   3.005
11444SOL     OW46390   4.910   1.592   3.669
11444SOL    HW146391   4.870   1.503   3.645
11444SOL    HW246392   4.910   1.652   3.590
11445SOL     OW46393   4.450   1.301   2.320
11445SOL    HW146394   4.462   1.240   2.242
11445SOL    HW246395   4.456   1.248   2.405
11446SOL     OW46396   4.075   0.867   2.594
11446SOL    HW146397   4.061   0.961   2.627
11446SOL    HW246398   4.159   0.831   2.634
11447SOL     OW46399   3.914   0.407   2.104
11447SOL    HW146400   3.951   0.352   2.029
11447SOL    HW246401   3.940   0.503   2.090
11448SOL     OW46402   3.810   0.541   2.656
11448SOL    HW146403   3.732   0.517   2.715
11448SOL    HW246404   3.891   0.556   2.713
11449SOL     OW46405   4.187   1.150   2.102
11449SOL    HW146406   4.287   1.155   2.103
11449SOL    HW246407   4.150   1.238   2.071
11450SOL     OW46408   4.810   0.744   1.912
11450SOL    HW146409   4.756   0.792   1.843
11450SOL    HW246410   4.874   0.681   1.867
11451SOL     OW46411   4.553   0.717   2.030
11451SOL    HW146412   4.646   0.715   1.994
11451SOL    HW246413   4.520   0.623   2.040
11452SOL     OW46414   5.051   0.159   2.268
11452SOL    HW146415   4.984   0.136   2.339
11452SOL    HW246416   5.057   0.258   2.258
11453SOL     OW46417   5.059   0.544   3.307
11453SOL    HW146418   5.003   0.626   3.295
11453SOL    HW246419   5.010   0.465   3.268
11454SOL     OW46420   3.683   9.964   2.009
11454SOL    HW146421   3.598   9.918   2.035
11454SOL    HW246422   3.719   0.015   2.087
11455SOL     OW46423   4.133   1.102   2.942
11455SOL    HW146424   4.091   1.039   3.009
11455SOL    HW246425   4.128   1.195   2.977
11456SOL     OW46426   5.362   1.073   2.030
11456SOL    HW146427   5.459   1.085   2.051
11456SOL    HW246428   5.351   1.060   1.931
11457SOL     OW46429   4.457   1.090   3.353
11457SOL    HW146430   4.523   1.132   3.290
11457SOL    HW246431   4.452   1.144   3.437
11458SOL     OW46432   4.856   1.083   3.512
11458SOL    HW146433   4.769   1.034   3.523
11458SOL    HW246434   4.929   1.029   3.552
11459SOL     OW46435   4.877   0.145   2.473
11459SOL    HW146436   4.881   0.160   2.572
11459SOL    HW246437   4.783   0.162   2.441
11460SOL     OW46438   4.902   1.774   3.462
11460SOL    HW146439   4.825   1.784   3.400
11460SOL    HW246440   4.920   1.861   3.507
11461SOL     OW46441   4.409   0.167   2.826
11461SOL    HW146442   4.388   0.080   2.871
11461SOL    HW246443   4.505   0.190   2.844
11462SOL     OW46444   3.997   1.823   3.112
11462SOL    HW146445   3.977   1.763   3.035
11462SOL    HW246446   3.914   1.835   3.167
11463SOL     OW46447   4.685   1.249   2.705
11463SOL    HW146448   4.721   1.329   2.657
11463SOL    HW246449   4.759   1.202   2.753
11464SOL     OW46450   4.341   1.032   2.777
11464SOL    HW146451   4.339   0.936   2.748
11464SOL    HW246452   4.264   1.049   2.839
11465SOL     OW46453   3.765   0.968   3.021
11465SOL    HW146454   3.850   0.989   3.070
11465SOL    HW246455   3.767   0.873   2.990
11466SOL     OW46456   3.979   0.033   2.279
11466SOL    HW146457   4.012   0.127   2.288
11466SOL    HW246458   3.879   0.032   2.284
11467SOL     OW46459   4.394   0.627   3.652
11467SOL    HW146460   4.454   0.608   3.574
11467SOL    HW246461   4.447   0.624   3.736
11468SOL     OW46462   3.774   1.087   2.094
11468SOL    HW146463   3.791   0.990   2.074
11468SOL    HW246464   3.823   1.144   2.028
11469SOL     OW46465   5.491   0.280   2.655
11469SOL    HW146466   5.525   0.266   2.748
11469SOL    HW246467   5.569   0.290   2.593
11470SOL     OW46468   4.502   1.215   2.912
11470SOL    HW146469   4.444   1.143   2.873
11470SOL    HW246470   4.569   1.243   2.843
11471SOL     OW46471   4.921   0.634   2.154
11471SOL    HW146472   4.964   0.716   2.192
11471SOL    HW246473   4.877   0.656   2.068
11472SOL     OW46474   5.242   1.461   3.516
11472SOL    HW146475   5.203   1.378   3.556
11472SOL    HW246476   5.174   1.505   3.457
11473SOL     OW46477   3.998   0.993   3.160
11473SOL    HW146478   3.989   0.912   3.219
11473SOL    HW246479   4.064   1.056   3.201
11474SOL     OW46480   4.501   1.463   1.876
11474SOL    HW146481   4.455   1.524   1.940
11474SOL    HW246482   4.569   1.408   1.924
11475SOL     OW46483   4.361   1.668   2.944
11475SOL    HW146484   4.349   1.656   2.845
11475SOL    HW246485   4.356   1.580   2.990
11476SOL     OW46486   4.463   1.162   2.566
11476SOL    HW146487   4.543   1.205   2.609
11476SOL    HW246488   4.413   1.110   2.635
11477SOL     OW46489   4.642   1.505   2.352
11477SOL    HW146490   4.713   1.507   2.282
11477SOL    HW246491   4.579   1.429   2.334
11478SOL     OW46492   3.817   0.855   2.702
11478SOL    HW146493   3.908   0.848   2.662
11478SOL    HW246494   3.756   0.902   2.638
11479SOL     OW46495   4.673   1.814   3.308
11479SOL    HW146496   4.631   1.750   3.373
11479SOL    HW246497   4.604   1.878   3.275
11480SOL     OW46498   4.897   1.151   2.853
11480SOL    HW146499   4.934   1.243   2.863
11480SOL    HW246500   4.895   1.106   2.942
11481SOL     OW46501   4.128   0.477   3.662
11481SOL    HW146502   4.228   0.466   3.662
11481SOL    HW246503   4.105   0.572   3.685
11482SOL     OW46504   4.226   0.910   2.231
11482SOL    HW146505   4.198   0.997   2.191
11482SOL    HW246506   4.146   0.864   2.270
11483SOL     OW46507   5.276   0.952   2.831
11483SOL    HW146508   5.322   1.028   2.785
11483SOL    HW246509   5.239   0.982   2.918
11484SOL     OW46510   4.990   0.283   3.237
11484SOL    HW146511   5.061   0.274   3.307
11484SOL    HW246512   4.934   0.200   3.235
11485SOL     OW46513   3.708   0.086   2.262
11485SOL    HW146514   3.619   0.053   2.295
11485SOL    HW246515   3.709   0.186   2.265
11486SOL     OW46516   4.115   1.614   3.460
11486SOL    HW146517   4.049   1.671   3.510
11486SOL    HW246518   4.159   1.668   3.389
11487SOL     OW46519   5.476   1.457   3.376
11487SOL    HW146520   5.521   1.544   3.398
11487SOL    HW246521   5.390   1.452   3.427
11488SOL     OW46522   4.725   0.516   2.900
11488SOL    HW146523   4.806   0.536   2.956
11488SOL    HW246524   4.707   0.417   2.902
11489SOL     OW46525   4.150   1.513   2.527
11489SOL    HW146526   4.149   1.413   2.526
11489SOL    HW246527   4.056   1.547   2.526
11490SOL     OW46528   4.797   1.577   2.989
11490SOL    HW146529   4.732   1.578   2.913
11490SOL    HW246530   4.747   1.578   3.075
11491SOL     OW46531   3.958   1.804   3.625
11491SOL    HW146532   3.960   1.894   3.583
11491SOL    HW246533   4.039   1.792   3.683
11492SOL     OW46534   3.881   1.646   2.911
11492SOL    HW146535   3.863   1.549   2.927
11492SOL    HW246536   3.909   1.659   2.816
11493SOL     OW46537   4.686   0.245   2.866
11493SOL    HW146538   4.765   0.244   2.805
11493SOL    HW246539   4.689   0.164   2.925
11494SOL     OW46540   4.783   1.220   2.253
11494SOL    HW146541   4.875   1.233   2.288
11494SOL    HW246542   4.739   1.145   2.304
11495SOL     OW46543   5.306   0.476   2.589
11495SOL    HW146544   5.328   0.557   2.644
11495SOL    HW246545   5.366   0.401   2.615
11496SOL     OW46546   4.463   1.154   2.084
11496SOL    HW146547   4.540   1.211   2.056
11496SOL    HW246548   4.464   1.068   2.032
11497SOL     OW46549   4.501   0.215   1.977
11497SOL    HW146550   4.523   0.154   2.053
11497SOL    HW246551   4.496   0.309   2.010
11498SOL     OW46552   4.171   0.505   2.586
11498SOL    HW146553   4.195   0.409   2.577
11498SOL    HW246554   4.227   0.560   2.525
11499SOL     OW46555   4.189   1.150   3.267
11499SOL    HW146556   4.281   1.130   3.298
11499SOL    HW246557   4.160   1.239   3.302
11500SOL     OW46558   5.449   1.127   3.179
11500SOL    HW146559   5.451   1.224   3.156
11500SOL    HW246560   5.503   1.076   3.113
11501SOL     OW46561   3.902   1.255   1.922
11501SOL    HW146562   3.873   1.279   1.830
11501SOL    HW246563   3.973   1.318   1.953
11502SOL     OW46564   4.344   1.610   2.037
11502SOL    HW146565   4.298   1.697   2.016
11502SOL    HW246566   4.319   1.581   2.129
11503SOL     OW46567   5.013   1.123   3.289
11503SOL    HW146568   4.953   1.089   3.362
11503SOL    HW246569   4.995   1.220   3.274
11504SOL     OW46570   4.232   1.758   3.259
11504SOL    HW146571   4.299   1.832   3.250
11504SOL    HW246572   4.155   1.774   3.196
11505SOL     OW46573   5.353   1.536   2.890
11505SOL    HW146574   5.388   1.627   2.911
11505SOL    HW246575   5.377   1.472   2.963
11506SOL     OW46576   3.663   0.956   2.498
11506SOL    HW146577   3.690   1.037   2.446
11506SOL    HW246578   3.564   0.956   2.511
11507SOL     OW46579   5.363   1.183   2.692
11507SOL    HW146580   5.340   1.279   2.675
11507SOL    HW246581   5.335   1.127   2.614
11508SOL     OW46582   4.444   0.564   2.824
11508SOL    HW146583   4.476   0.534   2.734
11508SOL    HW246584   4.521   0.569   2.887
11509SOL     OW46585   4.351   1.407   3.043
11509SOL    HW146586   4.254   1.385   3.038
11509SOL    HW246587   4.404   1.338   2.994
11510SOL     OW46588   3.817   0.705   2.924
11510SOL    HW146589   3.899   0.649   2.918
11510SOL    HW246590   3.807   0.760   2.841
11511SOL     OW46591   4.045   1.386   3.319
11511SOL    HW146592   4.075   1.468   3.369
11511SOL    HW246593   3.951   1.365   3.344
11512SOL     OW46594   5.341   1.695   3.625
11512SOL    HW146595   5.306   1.604   3.604
11512SOL    HW246596   5.313   1.759   3.554
11513SOL     OW46597   5.055   1.245   2.317
11513SOL    HW146598   5.148   1.254   2.354
11513SOL    HW246599   5.060   1.230   2.219
11514SOL     OW46600   4.317   0.388   2.327
11514SOL    HW146601   4.225   0.354   2.309
11514SOL    HW246602   4.359   0.334   2.400
11515SOL     OW46603   5.316   0.073   2.620
11515SOL    HW146604   5.306   0.054   2.522
11515SOL    HW246605   5.377   0.151   2.632
11516SOL     OW46606   4.918   0.770   3.220
11516SOL    HW146607   5.009   0.781   3.179
11516SOL    HW246608   4.853   0.830   3.174
11517SOL     OW46609   4.324   0.774   2.679
11517SOL    HW146610   4.353   0.706   2.747
11517SOL    HW246611   4.344   0.740   2.587
11518SOL     OW46612   4.983   1.409   2.873
11518SOL    HW146613   4.917   1.465   2.922
11518SOL    HW246614   5.009   1.456   2.788
11519SOL     OW46615   5.029   0.452   2.556
11519SOL    HW146616   5.021   0.439   2.457
11519SOL    HW246617   5.125   0.466   2.580
11520SOL     OW46618   4.794   1.479   4.451
11520SOL    HW146619   4.889   1.509   4.460
11520SOL    HW246620   4.768   1.479   4.354
11521SOL     OW46621   5.316   1.279   4.249
11521SOL    HW146622   5.322   1.342   4.327
11521SOL    HW246623   5.406   1.239   4.232
11522SOL     OW46624   5.321   0.599   5.129
11522SOL    HW146625   5.230   0.575   5.161
11522SOL    HW246626   5.382   0.609   5.208
11523SOL     OW46627   3.997   0.241   3.645
11523SOL    HW146628   3.991   0.209   3.551
11523SOL    HW246629   4.046   0.328   3.648
11524SOL     OW46630   5.049   1.562   4.510
11524SOL    HW146631   5.062   1.660   4.523
11524SOL    HW246632   5.136   1.518   4.488
11525SOL     OW46633   4.911   0.078   5.124
11525SOL    HW146634   4.841   0.009   5.144
11525SOL    HW246635   4.988   0.035   5.078
11526SOL     OW46636   4.672   0.849   5.400
11526SOL    HW146637   4.672   0.775   5.333
11526SOL    HW246638   4.581   0.857   5.440
11527SOL     OW46639   4.368   1.534   4.111
11527SOL    HW146640   4.405   1.599   4.178
11527SOL    HW246641   4.402   1.443   4.131
11528SOL     OW46642   4.187   0.057   3.733
11528SOL    HW146643   4.269   0.108   3.758
11528SOL    HW246644   4.113   0.120   3.712
11529SOL     OW46645   5.277   1.079   5.232
11529SOL    HW146646   5.184   1.092   5.199
11529SOL    HW246647   5.342   1.116   5.166
11530SOL     OW46648   5.182   1.047   4.919
11530SOL    HW146649   5.115   1.056   4.993
11530SOL    HW246650   5.215   1.137   4.893
11531SOL     OW46651   4.678   1.374   5.139
11531SOL    HW146652   4.592   1.425   5.133
11531SOL    HW246653   4.671   1.290   5.085
11532SOL     OW46654   4.460   0.675   4.319
11532SOL    HW146655   4.468   0.745   4.248
11532SOL    HW246656   4.413   0.595   4.282
11533SOL     OW46657   5.006   0.548   5.492
11533SOL    HW146658   5.105   0.552   5.496
11533SOL    HW246659   4.973   0.468   5.542
11534SOL     OW46660   4.181   1.293   3.832
11534SOL    HW146661   4.199   1.346   3.749
11534SOL    HW246662   4.203   1.348   3.912
11535SOL     OW46663   4.381   0.457   4.630
11535SOL    HW146664   4.452   0.501   4.686
11535SOL    HW246665   4.381   0.359   4.649
11536SOL     OW46666   4.519   1.673   4.295
11536SOL    HW146667   4.590   1.615   4.255
11536SOL    HW246668   4.526   1.670   4.395
11537SOL     OW46669   5.487   1.626   4.082
11537SOL    HW146670   5.573   1.576   4.072
11537SOL    HW246671   5.458   1.661   3.993
11538SOL     OW46672   5.397   0.331   4.840
11538SOL    HW146673   5.420   0.428   4.853
11538SOL    HW246674   5.301   0.323   4.813
11539SOL     OW46675   4.721   0.439   4.030
11539SOL    HW146676   4.770   0.520   3.997
11539SOL    HW246677   4.772   0.398   4.106
11540SOL     OW46678   3.812   1.050   5.342
11540SOL    HW146679   3.908   1.065   5.364
11540SOL    HW246680   3.767   1.007   5.420
11541SOL     OW46681   4.154   0.750   3.723
11541SOL    HW146682   4.159   0.849   3.730
11541SOL    HW246683   4.243   0.714   3.692
11542SOL     OW46684   4.696   0.634   5.229
11542SOL    HW146685   4.708   0.548   5.280
11542SOL    HW246686   4.780   0.655   5.180
11543SOL     OW46687   5.311   1.449   4.484
11543SOL    HW146688   5.321   1.474   4.580
11543SOL    HW246689   5.365   1.512   4.428
11544SOL     OW46690   5.162   0.778   4.984
11544SOL    HW146691   5.185   0.873   4.964
11544SOL    HW246692   5.236   0.735   5.035
11545SOL     OW46693   5.259   1.739   5.002
11545SOL    HW146694   5.183   1.745   4.937
11545SOL    HW246695   5.345   1.738   4.952
11546SOL     OW46696   5.454   0.589   4.890
11546SOL    HW146697   5.539   0.641   4.889
11546SOL    HW246698   5.411   0.598   4.980
11547SOL     OW46699   5.503   1.746   4.853
11547SOL    HW146700   5.539   1.778   4.941
11547SOL    HW246701   5.579   1.730   4.790
11548SOL     OW46702   4.640   0.478   4.408
11548SOL    HW146703   4.711   0.519   4.466
11548SOL    HW246704   4.578   0.549   4.375
11549SOL     OW46705   4.962   1.008   3.854
11549SOL    HW146706   4.978   0.956   3.938
11549SOL    HW246707   4.898   0.958   3.795
11550SOL     OW46708   4.718   0.378   5.452
11550SOL    HW146709   4.792   0.366   5.519
11550SOL    HW246710   4.630   0.378   5.499
11551SOL     OW46711   5.463   0.697   4.078
11551SOL    HW146712   5.412   0.614   4.102
11551SOL    HW246713   5.530   0.716   4.149
11552SOL     OW46714   4.880   1.819   3.843
11552SOL    HW146715   4.880   1.750   3.772
11552SOL    HW246716   4.832   1.784   3.924
11553SOL     OW46717   4.451   0.064   5.418
11553SOL    HW146718   4.414   9.971   5.415
11553SOL    HW246719   4.502   0.077   5.503
11554SOL     OW46720   5.409   0.652   4.628
11554SOL    HW146721   5.390   0.750   4.625
11554SOL    HW246722   5.419   0.624   4.723
11555SOL     OW46723   4.790   1.323   5.396
11555SOL    HW146724   4.825   1.230   5.389
11555SOL    HW246725   4.744   1.347   5.310
11556SOL     OW46726   5.072   9.947   4.557
11556SOL    HW146727   5.051   0.044   4.564
11556SOL    HW246728   5.142   9.933   4.487
11557SOL     OW46729   5.429   0.250   5.515
11557SOL    HW146730   5.390   0.302   5.590
11557SOL    HW246731   5.459   0.161   5.547
11558SOL     OW46732   4.094   0.266   4.585
11558SOL    HW146733   4.112   0.347   4.530
11558SOL    HW246734   4.004   0.275   4.629
11559SOL     OW46735   4.756   0.830   4.628
11559SOL    HW146736   4.660   0.839   4.601
11559SOL    HW246737   4.791   0.742   4.596
11560SOL     OW46738   5.171   1.346   4.926
11560SOL    HW146739   5.133   1.391   4.846
11560SOL    HW246740   5.104   1.347   5.000
11561SOL     OW46741   5.436   1.409   4.961
11561SOL    HW146742   5.460   1.444   5.051
11561SOL    HW246743   5.338   1.386   4.959
11562SOL     OW46744   4.226   1.032   3.738
11562SOL    HW146745   4.276   1.071   3.661
11562SOL    HW246746   4.189   1.106   3.795
11563SOL     OW46747   4.661   1.154   4.975
11563SOL    HW146748   4.696   1.062   4.958
11563SOL    HW246749   4.598   1.180   4.901
11564SOL     OW46750   5.268   0.891   4.106
11564SOL    HW146751   5.336   0.818   4.102
11564SOL    HW246752   5.286   0.956   4.032
11565SOL     OW46753   4.613   1.801   4.744
11565SOL    HW146754   4.612   1.744   4.663
11565SOL    HW246755   4.527   1.789   4.795
11566SOL     OW46756   4.469   0.911   3.776
11566SOL    HW146757   4.479   0.819   3.814
11566SOL    HW246758   4.371   0.935   3.770
11567SOL     OW46759   3.785   0.513   5.191
11567SOL    HW146760   3.777   0.417   5.162
11567SOL    HW246761   3.882   0.537   5.201
11568SOL     OW46762   3.752   0.253   5.102
11568SOL    HW146763   3.779   0.267   5.006
11568SOL    HW246764   3.656   0.228   5.106
11569SOL     OW46765   4.740   0.890   4.901
11569SOL    HW146766   4.755   0.875   4.803
11569SOL    HW246767   4.664   0.833   4.933
11570SOL     OW46768   5.374   0.475   4.203
11570SOL    HW146769   5.439   0.403   4.179
11570SOL    HW246770   5.348   0.465   4.299
11571SOL     OW46771   4.578   1.603   4.560
11571SOL    HW146772   4.661   1.559   4.525
11571SOL    HW246773   4.516   1.533   4.597
11572SOL     OW46774   4.455   0.419   3.986
11572SOL    HW146775   4.405   0.417   4.072
11572SOL    HW246776   4.553   0.409   4.004
11573SOL     OW46777   4.679   1.295   3.826
11573SOL    HW146778   4.734   1.277   3.908
11573SOL    HW246779   4.739   1.307   3.747
11574SOL     OW46780   5.450   1.639   4.351
11574SOL    HW146781   5.410   1.726   4.379
11574SOL    HW246782   5.458   1.637   4.251
11575SOL     OW46783   4.902   0.908   4.299
11575SOL    HW146784   4.932   0.937   4.390
11575SOL    HW246785   4.816   0.954   4.276
11576SOL     OW46786   4.525   1.642   5.337
11576SOL    HW146787   4.485   1.588   5.263
11576SOL    HW246788   4.509   1.597   5.424
11577SOL     OW46789   4.978   0.978   4.554
11577SOL    HW146790   4.901   0.922   4.583
11577SOL    HW246791   4.983   1.061   4.610
11578SOL     OW46792   4.101   1.119   4.695
11578SOL    HW146793   4.007   1.117   4.660
11578SOL    HW246794   4.110   1.192   4.763
11579SOL     OW46795   4.667   1.025   4.233
11579SOL    HW146796   4.610   0.954   4.191
11579SOL    HW246797   4.614   1.072   4.303
11580SOL     OW46798   4.957   1.372   5.103
11580SOL    HW146799   5.000   1.457   5.135
11580SOL    HW246800   4.858   1.380   5.111
11581SOL     OW46801   5.382   1.791   3.876
11581SOL    HW146802   5.465   1.847   3.870
11581SOL    HW246803   5.364   1.750   3.787
11582SOL     OW46804   4.548   0.727   5.012
11582SOL    HW146805   4.465   0.772   5.044
11582SOL    HW246806   4.596   0.686   5.090
11583SOL     OW46807   3.751   1.849   5.103
11583SOL    HW146808   3.696   1.932   5.101
11583SOL    HW246809   3.743   1.805   5.192
11584SOL     OW46810   4.487   0.858   4.105
11584SOL    HW146811   4.469   0.947   4.062
11584SOL    HW246812   4.499   0.789   4.033
11585SOL     OW46813   5.055   1.733   4.822
11585SOL    HW146814   5.071   1.771   4.731
11585SOL    HW246815   5.031   1.636   4.814
11586SOL     OW46816   3.754   1.154   4.676
11586SOL    HW146817   3.676   1.175   4.617
11586SOL    HW246818   3.737   1.069   4.725
11587SOL     OW46819   4.458   9.909   4.146
11587SOL    HW146820   4.384   9.853   4.184
11587SOL    HW246821   4.515   9.944   4.221
11588SOL     OW46822   5.274   0.319   5.301
11588SOL    HW146823   5.234   0.407   5.326
11588SOL    HW246824   5.332   0.287   5.376
11589SOL     OW46825   5.012   0.214   4.596
11589SOL    HW146826   5.015   0.288   4.529
11589SOL    HW246827   5.050   0.246   4.682
11590SOL     OW46828   5.315   0.015   5.305
11590SOL    HW146829   5.321   9.966   5.218
11590SOL    HW246830   5.300   0.112   5.287
11591SOL     OW46831   4.482   0.247   4.402
11591SOL    HW146832   4.436   0.220   4.487
11591SOL    HW246833   4.541   0.325   4.420
11592SOL     OW46834   5.067   0.610   4.790
11592SOL    HW146835   5.074   0.656   4.701
11592SOL    HW246836   5.104   0.670   4.861
11593SOL     OW46837   4.196   1.510   5.542
11593SOL    HW146838   4.170   1.532   5.448
11593SOL    HW246839   4.295   1.508   5.550
11594SOL     OW46840   3.817   1.381   4.819
11594SOL    HW146841   3.801   1.303   4.759
11594SOL    HW246842   3.743   1.389   4.885
11595SOL     OW46843   4.845   0.579   4.557
11595SOL    HW146844   4.921   0.535   4.509
11595SOL    HW246845   4.836   0.538   4.648
11596SOL     OW46846   5.479   0.645   5.353
11596SOL    HW146847   5.475   0.734   5.307
11596SOL    HW246848   5.574   0.624   5.376
11597SOL     OW46849   5.124   0.344   4.813
11597SOL    HW146850   5.105   0.441   4.798
11597SOL    HW246851   5.111   0.321   4.909
11598SOL     OW46852   5.272   0.538   5.494
11598SOL    HW146853   5.354   0.576   5.452
11598SOL    HW246854   5.297   0.490   5.578
11599SOL     OW46855   5.004   0.832   4.064
11599SOL    HW146856   4.959   0.854   4.151
11599SOL    HW246857   5.103   0.842   4.074
11600SOL     OW46858   5.239   0.970   4.379
11600SOL    HW146859   5.234   0.949   4.282
11600SOL    HW246860   5.149   0.957   4.421
11601SOL     OW46861   5.467   0.876   5.220
11601SOL    HW146862   5.391   0.940   5.209
11601SOL    HW246863   5.553   0.928   5.228
11602SOL     OW46864   4.425   1.535   5.098
11602SOL    HW146865   4.357   1.606   5.109
11602SOL    HW246866   4.407   1.485   5.013
11603SOL     OW46867   3.825   0.224   5.378
11603SOL    HW146868   3.800   0.232   5.281
11603SOL    HW246869   3.742   0.229   5.434
11604SOL     OW46870   3.743   1.713   5.344
11604SOL    HW146871   3.829   1.731   5.393
11604SOL    HW246872   3.667   1.716   5.408
11605SOL     OW46873   5.095   1.593   5.181
11605SOL    HW146874   5.034   1.658   5.226
11605SOL    HW246875   5.157   1.642   5.121
11606SOL     OW46876   5.441   0.239   5.094
11606SOL    HW146877   5.379   0.281   5.160
11606SOL    HW246878   5.416   0.268   5.001
11607SOL     OW46879   4.089   1.339   4.874
11607SOL    HW146880   4.099   1.346   4.973
11607SOL    HW246881   3.995   1.359   4.849
11608SOL     OW46882   4.901   1.561   5.504
11608SOL    HW146883   4.869   1.474   5.466
11608SOL    HW246884   4.903   1.630   5.431
11609SOL     OW46885   4.487   1.293   4.172
11609SOL    HW146886   4.487   1.223   4.101
11609SOL    HW246887   4.488   1.249   4.262
11610SOL     OW46888   3.805   0.325   3.821
11610SOL    HW146889   3.871   0.274   3.766
11610SOL    HW246890   3.849   0.406   3.859
11611SOL     OW46891   4.817   0.832   3.695
11611SOL    HW146892   4.738   0.860   3.641
11611SOL    HW246893   4.896   0.819   3.634
11612SOL     OW46894   4.530   0.667   3.897
11612SOL    HW146895   4.629   0.669   3.910
11612SOL    HW246896   4.493   0.580   3.929
11613SOL     OW46897   5.069   0.553   5.224
11613SOL    HW146898   5.038   0.556   5.319
11613SOL    HW246899   5.007   0.608   5.167
11614SOL     OW46900   5.343   1.030   3.882
11614SOL    HW146901   5.437   1.057   3.902
11614SOL    HW246902   5.330   1.021   3.783
11615SOL     OW46903   4.859   1.052   5.358
11615SOL    HW146904   4.782   0.989   5.366
11615SOL    HW246905   4.942   1.007   5.391
11616SOL     OW46906   4.821   0.326   4.265
11616SOL    HW146907   4.801   0.228   4.276
11616SOL    HW246908   4.753   0.380   4.316
11617SOL     OW46909   4.910   1.754   5.305
11617SOL    HW146910   4.829   1.768   5.247
11617SOL    HW246911   4.947   1.843   5.332
11618SOL     OW46912   4.348   0.182   4.640
11618SOL    HW146913   4.252   0.201   4.620
11618SOL    HW246914   4.355   0.099   4.695
11619SOL     OW46915   3.988   1.824   4.964
11619SOL    HW146916   3.965   1.760   4.890
11619SOL    HW246917   3.908   1.836   5.023
11620SOL     OW46918   4.712   1.260   4.587
11620SOL    HW146919   4.745   1.339   4.534
11620SOL    HW246920   4.789   1.219   4.636
11621SOL     OW46921   4.360   1.045   4.614
11621SOL    HW146922   4.382   0.948   4.606
11621SOL    HW246923   4.263   1.056   4.637
11622SOL     OW46924   5.509   0.205   4.521
11622SOL    HW146925   5.550   0.202   4.613
11622SOL    HW246926   5.577   0.239   4.456
11623SOL     OW46927   4.503   1.230   4.758
11623SOL    HW146928   4.444   1.162   4.715
11623SOL    HW246929   4.582   1.248   4.699
11624SOL     OW46930   4.807   0.688   3.928
11624SOL    HW146931   4.876   0.729   3.988
11624SOL    HW246932   4.810   0.734   3.839
11625SOL     OW46933   5.248   1.447   5.358
11625SOL    HW146934   5.205   1.367   5.401
11625SOL    HW246935   5.183   1.489   5.294
11626SOL     OW46936   4.525   1.501   3.712
11626SOL    HW146937   4.465   1.547   3.777
11626SOL    HW246938   4.582   1.435   3.760
11627SOL     OW46939   4.363   1.728   4.838
11627SOL    HW146940   4.361   1.630   4.818
11627SOL    HW246941   4.316   1.745   4.925
11628SOL     OW46942   4.520   1.162   4.418
11628SOL    HW146943   4.593   1.198   4.475
11628SOL    HW246944   4.450   1.120   4.476
11629SOL     OW46945   4.695   1.484   4.197
11629SOL    HW146946   4.762   1.495   4.124
11629SOL    HW246947   4.634   1.408   4.177
11630SOL     OW46948   3.670   0.904   5.530
11630SOL    HW146949   3.581   0.909   5.485
11630SOL    HW246950   3.695   0.808   5.542
11631SOL     OW46951   4.677   1.782   5.148
11631SOL    HW146952   4.629   1.725   5.215
11631SOL    HW246953   4.616   1.856   5.119
11632SOL     OW46954   4.930   1.187   4.738
11632SOL    HW146955   4.954   1.283   4.751
11632SOL    HW246956   4.926   1.142   4.827
11633SOL     OW46957   5.356   0.939   4.709
11633SOL    HW146958   5.352   1.013   4.641
11633SOL    HW246959   5.289   0.956   4.781
11634SOL     OW46960   5.112   0.275   5.077
11634SOL    HW146961   5.160   0.314   5.155
11634SOL    HW246962   5.027   0.233   5.108
11635SOL     OW46963   4.799   0.111   5.390
11635SOL    HW146964   4.864   0.126   5.315
11635SOL    HW246965   4.755   0.198   5.413
11636SOL     OW46966   4.123   1.614   5.295
11636SOL    HW146967   4.064   1.673   5.349
11636SOL    HW246968   4.163   1.666   5.220
11637SOL     OW46969   5.490   1.468   5.224
11637SOL    HW146970   5.535   1.552   5.253
11637SOL    HW246971   5.406   1.456   5.276
11638SOL     OW46972   4.814   0.493   4.814
11638SOL    HW146973   4.903   0.535   4.831
11638SOL    HW246974   4.808   0.406   4.864
11639SOL     OW46975   4.767   1.602   4.869
11639SOL    HW146976   4.729   1.589   4.961
11639SOL    HW246977   4.721   1.679   4.825
11640SOL     OW46978   3.980   1.770   5.480
11640SOL    HW146979   3.995   1.867   5.499
11640SOL    HW246980   4.007   1.716   5.559
11641SOL     OW46981   3.834   1.293   5.206
11641SOL    HW146982   3.807   1.205   5.246
11641SOL    HW246983   3.758   1.358   5.215
11642SOL     OW46984   3.882   1.646   4.768
11642SOL    HW146985   3.865   1.550   4.789
11642SOL    HW246986   3.910   1.654   4.672
11643SOL     OW46987   4.771   0.079   4.565
11643SOL    HW146988   4.855   0.132   4.573
11643SOL    HW246989   4.726   0.073   4.654
11644SOL     OW46990   4.794   1.217   4.068
11644SOL    HW146991   4.885   1.230   4.107
11644SOL    HW246992   4.745   1.146   4.119
11645SOL     OW46993   5.322   0.432   4.471
11645SOL    HW146994   5.349   0.511   4.526
11645SOL    HW246995   5.374   0.352   4.499
11646SOL     OW46996   4.508   1.112   3.958
11646SOL    HW146997   4.570   1.182   3.924
11646SOL    HW246998   4.495   1.042   3.887
11647SOL     OW46999   4.407   0.206   3.805
11647SOL    HW147000   4.465   0.131   3.837
11647SOL    HW247001   4.419   0.285   3.865
11648SOL     OW47002   4.182   0.505   4.460
11648SOL    HW147003   4.259   0.492   4.523
11648SOL    HW247004   4.153   0.601   4.463
11649SOL     OW47005   5.466   1.150   5.049
11649SOL    HW147006   5.467   1.247   5.022
11649SOL    HW247007   5.512   1.096   4.980
11650SOL     OW47008   4.332   1.617   3.856
11650SOL    HW147009   4.273   1.696   3.843
11650SOL    HW247010   4.337   1.594   3.953
11651SOL     OW47011   5.019   1.110   5.133
11651SOL    HW147012   4.958   1.070   5.201
11651SOL    HW247013   4.995   1.207   5.120
11652SOL     OW47014   4.231   1.759   5.083
11652SOL    HW147015   4.281   1.843   5.105
11652SOL    HW247016   4.143   1.783   5.042
11653SOL     OW47017   5.349   1.544   4.733
11653SOL    HW147018   5.387   1.634   4.750
11653SOL    HW247019   5.376   1.482   4.808
11654SOL     OW47020   5.338   1.170   4.542
11654SOL    HW147021   5.313   1.265   4.525
11654SOL    HW247022   5.297   1.112   4.472
11655SOL     OW47023   4.565   0.598   4.773
11655SOL    HW147024   4.655   0.555   4.776
11655SOL    HW247025   4.546   0.645   4.859
11656SOL     OW47026   4.349   1.443   4.842
11656SOL    HW147027   4.254   1.412   4.846
11656SOL    HW247028   4.407   1.367   4.813
11657SOL     OW47029   4.082   1.381   5.143
11657SOL    HW147030   4.102   1.459   5.203
11657SOL    HW247031   3.992   1.344   5.165
11658SOL     OW47032   5.344   1.690   5.446
11658SOL    HW147033   5.309   1.599   5.426
11658SOL    HW247034   5.313   1.754   5.376
11659SOL     OW47035   5.058   1.239   4.156
11659SOL    HW147036   5.146   1.244   4.203
11659SOL    HW247037   5.072   1.234   4.057
11660SOL     OW47038   4.346   0.431   4.245
11660SOL    HW147039   4.266   0.451   4.301
11660SOL    HW247040   4.395   0.352   4.283
11661SOL     OW47041   4.906   0.733   5.072
11661SOL    HW147042   5.001   0.752   5.047
11661SOL    HW247043   4.845   0.792   5.018
11662SOL     OW47044   4.476   0.786   4.576
11662SOL    HW147045   4.494   0.713   4.641
11662SOL    HW247046   4.465   0.748   4.484
11663SOL     OW47047   4.975   1.462   4.757
11663SOL    HW147048   4.891   1.503   4.793
11663SOL    HW247049   4.989   1.493   4.663
11664SOL     OW47050   5.042   0.433   4.432
11664SOL    HW147051   5.008   0.411   4.341
11664SOL    HW247052   5.142   0.438   4.430
11665SOL     OW47053   4.816   1.483   6.341
11665SOL    HW147054   4.903   1.532   6.340
11665SOL    HW247055   4.783   1.471   6.247
11666SOL     OW47056   5.317   1.296   6.102
11666SOL    HW147057   5.313   1.373   6.165
11666SOL    HW247058   5.405   1.249   6.112
11667SOL     OW47059   5.303   0.608   6.980
11667SOL    HW147060   5.220   0.562   7.011
11667SOL    HW247061   5.364   0.624   7.058
11668SOL     OW47062   3.955   0.083   5.575
11668SOL    HW147063   3.918   0.135   5.498
11668SOL    HW247064   4.052   0.105   5.586
11669SOL     OW47065   5.058   1.609   6.351
11669SOL    HW147066   5.053   1.708   6.341
11669SOL    HW247067   5.145   1.576   6.314
11670SOL     OW47068   4.901   0.074   6.982
11670SOL    HW147069   4.810   0.044   6.954
11670SOL    HW247070   4.970   0.020   6.934
11671SOL     OW47071   4.709   0.885   7.352
11671SOL    HW147072   4.700   0.825   7.272
11671SOL    HW247073   4.621   0.892   7.399
11672SOL     OW47074   4.246   1.526   5.985
11672SOL    HW147075   4.177   1.494   6.050
11672SOL    HW247076   4.334   1.535   6.031
11673SOL     OW47077   5.300   1.077   7.079
11673SOL    HW147078   5.205   1.102   7.057
11673SOL    HW247079   5.360   1.107   7.005
11674SOL     OW47080   5.197   1.028   6.780
11674SOL    HW147081   5.128   1.076   6.833
11674SOL    HW247082   5.287   1.067   6.799
11675SOL     OW47083   4.463   0.677   6.044
11675SOL    HW147084   4.484   0.755   5.986
11675SOL    HW247085   4.442   0.597   5.987
11676SOL     OW47086   4.983   0.490   7.334
11676SOL    HW147087   5.080   0.506   7.350
11676SOL    HW247088   4.951   0.417   7.394
11677SOL     OW47089   4.077   1.439   5.779
11677SOL    HW147090   4.115   1.454   5.687
11677SOL    HW247091   4.147   1.458   5.847
11678SOL     OW47092   4.198   0.442   6.535
11678SOL    HW147093   4.291   0.477   6.543
11678SOL    HW247094   4.200   0.347   6.502
11679SOL     OW47095   3.910   0.672   5.914
11679SOL    HW147096   3.902   0.614   5.994
11679SOL    HW247097   3.820   0.713   5.893
11680SOL     OW47098   4.482   1.579   6.126
11680SOL    HW147099   4.558   1.515   6.126
11680SOL    HW247100   4.510   1.665   6.083
11681SOL     OW47101   5.321   1.670   5.899
11681SOL    HW147102   5.338   1.574   5.878
11681SOL    HW247103   5.335   1.726   5.817
11682SOL     OW47104   5.320   0.360   6.658
11682SOL    HW147105   5.354   0.452   6.677
11682SOL    HW247106   5.221   0.362   6.646
11683SOL     OW47107   4.767   0.398   5.860
11683SOL    HW147108   4.818   0.482   5.878
11683SOL    HW247109   4.736   0.358   5.946
11684SOL     OW47110   3.829   0.955   7.127
11684SOL    HW147111   3.853   1.052   7.134
11684SOL    HW247112   3.801   0.921   7.217
11685SOL     OW47113   4.264   1.596   6.311
11685SOL    HW147114   4.348   1.593   6.257
11685SOL    HW247115   4.197   1.533   6.271
11686SOL     OW47116   4.706   0.682   7.158
11686SOL    HW147117   4.709   0.592   7.201
11686SOL    HW247118   4.777   0.687   7.088
11687SOL     OW47119   5.314   1.503   6.285
11687SOL    HW147120   5.333   1.501   6.384
11687SOL    HW247121   5.369   1.575   6.243
11688SOL     OW47122   4.916   0.337   5.639
11688SOL    HW147123   4.989   0.272   5.657
11688SOL    HW247124   4.863   0.351   5.722
11689SOL     OW47125   4.095   0.550   6.766
11689SOL    HW147126   4.134   0.505   6.686
11689SOL    HW247127   4.001   0.578   6.747
11690SOL     OW47128   5.128   0.774   6.842
11690SOL    HW147129   5.158   0.866   6.817
11690SOL    HW247130   5.202   0.727   6.890
11691SOL     OW47131   5.414   0.612   6.727
11691SOL    HW147132   5.494   0.672   6.726
11691SOL    HW247133   5.376   0.609   6.819
11692SOL     OW47134   4.650   0.626   6.245
11692SOL    HW147135   4.738   0.671   6.227
11692SOL    HW247136   4.585   0.649   6.172
11693SOL     OW47137   4.922   0.980   5.711
11693SOL    HW147138   4.958   0.941   5.796
11693SOL    HW247139   4.895   0.906   5.650
11694SOL     OW47140   4.686   0.308   7.330
11694SOL    HW147141   4.755   0.318   7.402
11694SOL    HW247142   4.605   0.264   7.368
11695SOL     OW47143   5.440   0.699   5.896
11695SOL    HW147144   5.386   0.615   5.911
11695SOL    HW247145   5.505   0.710   5.971
11696SOL     OW47146   4.693   1.828   5.735
11696SOL    HW147147   4.726   1.744   5.691
11696SOL    HW247148   4.663   1.807   5.828
11697SOL     OW47149   4.513   0.007   7.219
11697SOL    HW147150   4.586   9.938   7.224
11697SOL    HW247151   4.509   0.057   7.305
11698SOL     OW47152   5.343   0.682   6.463
11698SOL    HW147153   5.304   0.773   6.466
11698SOL    HW247154   5.364   0.652   6.556
11699SOL     OW47155   4.974   1.361   7.223
11699SOL    HW147156   4.966   1.263   7.243
11699SOL    HW247157   4.916   1.383   7.144
11700SOL     OW47158   5.066   0.020   6.438
11700SOL    HW147159   5.015   0.106   6.436
11700SOL    HW247160   5.150   0.030   6.386
11701SOL     OW47161   5.440   0.259   7.388
11701SOL    HW147162   5.409   0.322   7.460
11701SOL    HW247163   5.457   0.169   7.428
11702SOL     OW47164   3.693   0.726   6.155
11702SOL    HW147165   3.711   0.657   6.226
11702SOL    HW247166   3.699   0.817   6.196
11703SOL     OW47167   3.861   1.576   5.866
11703SOL    HW147168   3.926   1.509   5.830
11703SOL    HW247169   3.896   1.668   5.850
11704SOL     OW47170   5.177   1.357   6.813
11704SOL    HW147171   5.124   1.404   6.742
11704SOL    HW247172   5.116   1.299   6.867
11705SOL     OW47173   3.813   1.471   6.118
11705SOL    HW147174   3.737   1.521   6.159
11705SOL    HW247175   3.831   1.508   6.026
11706SOL     OW47176   5.441   1.403   6.811
11706SOL    HW147177   5.464   1.444   6.899
11706SOL    HW247178   5.343   1.385   6.807
11707SOL     OW47179   4.854   1.284   6.789
11707SOL    HW147180   4.825   1.236   6.706
11707SOL    HW247181   4.837   1.382   6.779
11708SOL     OW47182   5.296   0.937   5.933
11708SOL    HW147183   5.348   0.853   5.923
11708SOL    HW247184   5.329   1.005   5.868
11709SOL     OW47185   4.504   1.796   6.530
11709SOL    HW147186   4.577   1.728   6.526
11709SOL    HW247187   4.423   1.756   6.573
11710SOL     OW47188   5.064   0.415   5.966
11710SOL    HW147189   5.022   0.486   5.910
11710SOL    HW247190   5.163   0.430   5.970
11711SOL     OW47191   5.337   0.453   5.997
11711SOL    HW147192   5.423   0.402   5.986
11711SOL    HW247193   5.323   0.473   6.094
11712SOL     OW47194   4.639   1.555   6.532
11712SOL    HW147195   4.699   1.528   6.456
11712SOL    HW247196   4.548   1.515   6.520
11713SOL     OW47197   4.549   0.401   5.705
11713SOL    HW147198   4.470   0.412   5.767
11713SOL    HW247199   4.633   0.396   5.759
11714SOL     OW47200   4.669   1.345   5.644
11714SOL    HW147201   4.730   1.399   5.702
11714SOL    HW247202   4.711   1.334   5.554
11715SOL     OW47203   5.442   1.700   6.146
11715SOL    HW147204   5.503   1.779   6.136
11715SOL    HW247205   5.395   1.682   6.060
11716SOL     OW47206   4.910   0.818   6.163
11716SOL    HW147207   4.948   0.854   6.249
11716SOL    HW247208   4.821   0.861   6.146
11717SOL     OW47209   5.015   0.976   6.363
11717SOL    HW147210   5.086   0.954   6.430
11717SOL    HW247211   4.965   1.056   6.394
11718SOL     OW47212   4.672   0.932   6.115
11718SOL    HW147213   4.632   0.913   6.025
11718SOL    HW247214   4.601   0.926   6.185
11719SOL     OW47215   3.700   0.421   5.921
11719SOL    HW147216   3.734   0.352   5.857
11719SOL    HW247217   3.770   0.439   5.991
11720SOL     OW47218   5.354   1.824   5.678
11720SOL    HW147219   5.442   1.871   5.683
11720SOL    HW247220   5.349   1.772   5.593
11721SOL     OW47221   4.470   0.726   7.021
11721SOL    HW147222   4.483   0.806   6.962
11721SOL    HW247223   4.555   0.707   7.071
11722SOL     OW47224   3.750   1.846   6.967
11722SOL    HW147225   3.701   1.933   6.961
11722SOL    HW247226   3.745   1.812   7.061
11723SOL     OW47227   4.553   0.874   5.874
11723SOL    HW147228   4.583   0.962   5.836
11723SOL    HW247229   4.557   0.804   5.802
11724SOL     OW47230   4.044   0.598   6.365
11724SOL    HW147231   4.111   0.600   6.291
11724SOL    HW247232   4.082   0.551   6.444
11725SOL     OW47233   3.989   1.817   5.816
11725SOL    HW147234   4.076   1.841   5.772
11725SOL    HW247235   3.994   1.841   5.913
11726SOL     OW47236   3.734   1.212   6.562
11726SOL    HW147237   3.656   1.196   6.502
11726SOL    HW247238   3.745   1.134   6.624
11727SOL     OW47239   3.707   1.211   6.109
11727SOL    HW147240   3.748   1.302   6.123
11727SOL    HW247241   3.730   1.178   6.017
11728SOL     OW47242   5.303   0.311   7.151
11728SOL    HW147243   5.234   0.383   7.158
11728SOL    HW247244   5.353   0.304   7.237
11729SOL     OW47245   4.928   0.264   6.421
11729SOL    HW147246   4.959   0.328   6.351
11729SOL    HW247247   4.961   0.294   6.510
11730SOL     OW47248   5.120   0.170   5.726
11730SOL    HW147249   5.149   0.084   5.682
11730SOL    HW247250   5.083   0.150   5.817
11731SOL     OW47251   5.352   0.039   7.164
11731SOL    HW147252   5.346   0.003   7.071
11731SOL    HW247253   5.328   0.137   7.164
11732SOL     OW47254   4.505   0.393   6.287
11732SOL    HW147255   4.539   0.330   6.357
11732SOL    HW247256   4.556   0.478   6.290
11733SOL     OW47257   4.961   0.627   6.679
11733SOL    HW147258   4.957   0.649   6.582
11733SOL    HW247259   5.027   0.687   6.724
11734SOL     OW47260   5.263   0.021   6.020
11734SOL    HW147261   5.275   9.959   5.942
11734SOL    HW247262   5.172   0.062   6.016
11735SOL     OW47263   3.830   1.445   6.669
11735SOL    HW147264   3.808   1.362   6.616
11735SOL    HW247265   3.766   1.454   6.744
11736SOL     OW47266   4.908   0.622   6.414
11736SOL    HW147267   4.953   0.569   6.342
11736SOL    HW247268   4.813   0.592   6.423
11737SOL     OW47269   5.447   0.651   7.217
11737SOL    HW147270   5.478   0.735   7.172
11737SOL    HW247271   5.521   0.615   7.275
11738SOL     OW47272   5.043   0.366   6.651
11738SOL    HW147273   5.011   0.461   6.658
11738SOL    HW247274   5.045   0.325   6.742
11739SOL     OW47275   5.247   0.520   7.356
11739SOL    HW147276   5.320   0.570   7.309
11739SOL    HW247277   5.281   0.488   7.445
11740SOL     OW47278   5.033   0.857   5.928
11740SOL    HW147279   4.994   0.844   6.019
11740SOL    HW247280   5.128   0.887   5.936
11741SOL     OW47281   5.242   1.004   6.201
11741SOL    HW147282   5.244   0.992   6.102
11741SOL    HW247283   5.148   0.991   6.233
11742SOL     OW47284   5.505   0.877   7.080
11742SOL    HW147285   5.423   0.929   7.056
11742SOL    HW247286   5.580   0.940   7.101
11743SOL     OW47287   5.299   0.380   5.720
11743SOL    HW147288   5.321   0.406   5.814
11743SOL    HW247289   5.231   0.306   5.722
11744SOL     OW47290   3.743   1.735   7.223
11744SOL    HW147291   3.824   1.748   7.281
11744SOL    HW247292   3.661   1.733   7.280
11745SOL     OW47293   3.891   0.480   6.114
11745SOL    HW147294   3.841   0.492   6.200
11745SOL    HW247295   3.988   0.462   6.134
11746SOL     OW47296   4.158   0.606   5.831
11746SOL    HW147297   4.180   0.664   5.753
11746SOL    HW247298   4.066   0.630   5.865
11747SOL     OW47299   5.402   0.234   6.897
11747SOL    HW147300   5.351   0.271   6.975
11747SOL    HW247301   5.366   0.273   6.812
11748SOL     OW47302   4.122   1.833   6.306
11748SOL    HW147303   4.078   1.845   6.217
11748SOL    HW247304   4.169   1.745   6.308
11749SOL     OW47305   4.102   1.476   6.743
11749SOL    HW147306   4.103   1.448   6.839
11749SOL    HW247307   4.010   1.462   6.705
11750SOL     OW47308   4.986   1.575   7.414
11750SOL    HW147309   4.986   1.495   7.354
11750SOL    HW247310   4.892   1.608   7.426
11751SOL     OW47311   3.760   0.541   6.357
11751SOL    HW147312   3.694   0.596   6.409
11751SOL    HW247313   3.853   0.565   6.384
11752SOL     OW47314   4.838   0.738   5.585
11752SOL    HW147315   4.785   0.785   5.514
11752SOL    HW247316   4.903   0.675   5.541
11753SOL     OW47317   4.583   0.680   5.684
11753SOL    HW147318   4.677   0.694   5.653
11753SOL    HW247319   4.561   0.583   5.682
11754SOL     OW47320   5.011   0.144   5.986
11754SOL    HW147321   4.948   0.122   6.061
11754SOL    HW247322   5.022   0.243   5.980
11755SOL     OW47323   5.063   0.499   7.073
11755SOL    HW147324   5.034   0.491   7.168
11755SOL    HW247325   5.002   0.562   7.024
11756SOL     OW47326   3.705   9.984   5.641
11756SOL    HW147327   3.805   9.991   5.634
11756SOL    HW247328   3.664   0.070   5.611
11757SOL     OW47329   5.395   1.084   5.717
11757SOL    HW147330   5.494   1.076   5.703
11757SOL    HW247331   5.348   1.070   5.630
11758SOL     OW47332   4.367   0.535   6.844
11758SOL    HW147333   4.399   0.600   6.913
11758SOL    HW247334   4.268   0.543   6.835
11759SOL     OW47335   4.912   1.081   7.202
11759SOL    HW147336   4.826   1.054   7.245
11759SOL    HW247337   4.982   1.013   7.222
11760SOL     OW47338   4.846   0.097   6.203
11760SOL    HW147339   4.867   0.150   6.285
11760SOL    HW247340   4.829   0.002   6.229
11761SOL     OW47341   3.976   1.856   6.814
11761SOL    HW147342   3.956   1.803   6.731
11761SOL    HW247343   3.897   1.853   6.875
11762SOL     OW47344   4.867   1.210   6.401
11762SOL    HW147345   4.843   1.186   6.307
11762SOL    HW247346   4.860   1.309   6.413
11763SOL     OW47347   3.726   0.995   6.741
11763SOL    HW147348   3.791   0.931   6.780
11763SOL    HW247349   3.658   0.945   6.687
11764SOL     OW47350   4.284   0.665   7.218
11764SOL    HW147351   4.346   0.699   7.147
11764SOL    HW247352   4.279   0.565   7.214
11765SOL     OW47353   5.432   0.278   6.418
11765SOL    HW147354   5.388   0.300   6.505
11765SOL    HW247355   5.528   0.255   6.435
11766SOL     OW47356   4.934   0.622   5.831
11766SOL    HW147357   4.972   0.702   5.877
11766SOL    HW247358   4.896   0.649   5.742
11767SOL     OW47359   5.249   1.405   7.231
11767SOL    HW147360   5.271   1.324   7.286
11767SOL    HW247361   5.151   1.404   7.209
11768SOL     OW47362   3.908   0.831   6.896
11768SOL    HW147363   4.002   0.799   6.906
11768SOL    HW247364   3.879   0.876   6.981
11769SOL     OW47365   4.470   1.531   5.583
11769SOL    HW147366   4.445   1.584   5.664
11769SOL    HW247367   4.531   1.457   5.611
11770SOL     OW47368   4.298   1.614   6.592
11770SOL    HW147369   4.275   1.602   6.495
11770SOL    HW247370   4.232   1.565   6.649
11771SOL     OW47371   4.720   1.429   6.086
11771SOL    HW147372   4.744   1.454   5.993
11771SOL    HW247373   4.745   1.333   6.102
11772SOL     OW47374   3.853   0.807   6.452
11772SOL    HW147375   3.933   0.772   6.402
11772SOL    HW247376   3.807   0.876   6.395
11773SOL     OW47377   3.721   0.880   7.363
11773SOL    HW147378   3.623   0.899   7.362
11773SOL    HW247379   3.746   0.842   7.452
11774SOL     OW47380   5.244   0.945   6.522
11774SOL    HW147381   5.289   1.023   6.478
11774SOL    HW247382   5.223   0.967   6.617
11775SOL     OW47383   5.066   0.279   6.907
11775SOL    HW147384   5.072   0.357   6.970
11775SOL    HW247385   4.996   0.215   6.940
11776SOL     OW47386   4.833   0.091   7.246
11776SOL    HW147387   4.870   0.094   7.153
11776SOL    HW247388   4.779   0.173   7.263
11777SOL     OW47389   4.064   1.625   7.168
11777SOL    HW147390   4.029   1.676   7.247
11777SOL    HW247391   4.111   1.688   7.106
11778SOL     OW47392   5.451   1.494   7.071
11778SOL    HW147393   5.463   1.591   7.092
11778SOL    HW247394   5.373   1.458   7.123
11779SOL     OW47395   4.721   0.508   6.608
11779SOL    HW147396   4.805   0.552   6.639
11779SOL    HW247397   4.696   0.434   6.670
11780SOL     OW47398   4.078   1.432   6.188
11780SOL    HW147399   4.084   1.339   6.224
11780SOL    HW247400   3.982   1.454   6.168
11781SOL     OW47401   4.814   1.554   6.735
11781SOL    HW147402   4.746   1.555   6.662
11781SOL    HW247403   4.799   1.632   6.796
11782SOL     OW47404   3.966   1.771   7.386
11782SOL    HW147405   3.988   1.869   7.390
11782SOL    HW247406   3.989   1.729   7.474
11783SOL     OW47407   3.815   1.258   7.132
11783SOL    HW147408   3.761   1.208   7.065
11783SOL    HW247409   3.778   1.351   7.142
11784SOL     OW47410   3.882   1.706   6.596
11784SOL    HW147411   3.871   1.609   6.615
11784SOL    HW247412   3.922   1.719   6.506
11785SOL     OW47413   4.644   0.219   6.455
11785SOL    HW147414   4.740   0.247   6.451
11785SOL    HW247415   4.629   0.162   6.536
11786SOL     OW47416   4.817   1.175   6.133
11786SOL    HW147417   4.908   1.176   6.094
11786SOL    HW247418   4.772   1.088   6.113
11787SOL     OW47419   5.307   0.482   6.274
11787SOL    HW147420   5.316   0.563   6.331
11787SOL    HW247421   5.358   0.406   6.315
11788SOL     OW47422   4.673   1.093   5.768
11788SOL    HW147423   4.658   1.183   5.726
11788SOL    HW247424   4.765   1.061   5.746
11789SOL     OW47425   4.581   0.102   5.651
11789SOL    HW147426   4.612   0.030   5.713
11789SOL    HW247427   4.575   0.189   5.699
11790SOL     OW47428   4.270   0.538   6.204
11790SOL    HW147429   4.335   0.477   6.249
11790SOL    HW247430   4.320   0.608   6.153
11791SOL     OW47431   5.442   1.127   6.849
11791SOL    HW147432   5.457   1.225   6.834
11791SOL    HW247433   5.511   1.074   6.799
11792SOL     OW47434   4.361   1.684   5.790
11792SOL    HW147435   4.301   1.751   5.746
11792SOL    HW247436   4.307   1.626   5.852
11793SOL     OW47437   5.023   1.159   6.958
11793SOL    HW147438   4.980   1.126   7.042
11793SOL    HW247439   4.953   1.198   6.898
11794SOL     OW47440   4.187   1.797   6.981
11794SOL    HW147441   4.261   1.757   6.928
11794SOL    HW247442   4.109   1.815   6.921
11795SOL     OW47443   5.330   1.485   6.555
11795SOL    HW147444   5.236   1.498   6.584
11795SOL    HW247445   5.389   1.471   6.635
11796SOL     OW47446   3.691   0.973   6.271
11796SOL    HW147447   3.717   1.060   6.228
11796SOL    HW247448   3.592   0.965   6.274
11797SOL     OW47449   5.340   1.177   6.395
11797SOL    HW147450   5.303   1.270   6.399
11797SOL    HW247451   5.307   1.131   6.312
11798SOL     OW47452   4.449   0.518   6.585
11798SOL    HW147453   4.548   0.520   6.572
11798SOL    HW247454   4.428   0.528   6.683
11799SOL     OW47455   3.846   0.668   6.689
11799SOL    HW147456   3.865   0.729   6.766
11799SOL    HW247457   3.850   0.720   6.603
11800SOL     OW47458   4.044   1.402   7.009
11800SOL    HW147459   4.053   1.482   7.069
11800SOL    HW247460   3.974   1.340   7.045
11801SOL     OW47461   5.254   1.649   7.372
11801SOL    HW147462   5.279   1.567   7.320
11801SOL    HW247463   5.154   1.653   7.383
11802SOL     OW47464   5.066   1.202   6.025
11802SOL    HW147465   5.156   1.231   6.058
11802SOL    HW247466   5.066   1.201   5.925
11803SOL     OW47467   4.367   0.456   5.904
11803SOL    HW147468   4.285   0.505   5.877
11803SOL    HW247469   4.347   0.399   5.984
11804SOL     OW47470   5.298   0.063   6.300
11804SOL    HW147471   5.297   0.055   6.200
11804SOL    HW247472   5.348   0.145   6.326
11805SOL     OW47473   4.891   0.683   6.955
11805SOL    HW147474   4.970   0.744   6.941
11805SOL    HW247475   4.861   0.646   6.867
11806SOL     OW47476   5.058   1.512   6.612
11806SOL    HW147477   4.971   1.532   6.659
11806SOL    HW247478   5.053   1.546   6.518
11807SOL     OW47479   5.035   0.442   6.242
11807SOL    HW147480   5.022   0.434   6.143
11807SOL    HW247481   5.132   0.458   6.262
11808SOL     OW47482   4.768   1.459   8.132
11808SOL    HW147483   4.862   1.491   8.141
11808SOL    HW247484   4.733   1.484   8.042
11809SOL     OW47485   5.248   1.278   7.939
11809SOL    HW147486   5.257   1.340   8.017
11809SOL    HW247487   5.338   1.242   7.914
11810SOL     OW47488   5.308   0.604   8.821
11810SOL    HW147489   5.220   0.579   8.861
11810SOL    HW247490   5.377   0.612   8.893
11811SOL     OW47491   5.025   1.557   8.199
11811SOL    HW147492   5.038   1.654   8.217
11811SOL    HW247493   5.112   1.515   8.176
11812SOL     OW47494   4.864   0.098   8.778
11812SOL    HW147495   4.802   0.044   8.834
11812SOL    HW247496   4.931   0.037   8.736
11813SOL     OW47497   4.687   0.863   9.121
11813SOL    HW147498   4.674   0.791   9.052
11813SOL    HW247499   4.597   0.893   9.154
11814SOL     OW47500   4.229   1.491   7.773
11814SOL    HW147501   4.200   1.510   7.867
11814SOL    HW247502   4.319   1.446   7.774
11815SOL     OW47503   4.195   0.158   7.525
11815SOL    HW147504   4.282   0.185   7.483
11815SOL    HW247505   4.141   0.240   7.545
11816SOL     OW47506   5.276   1.062   8.921
11816SOL    HW147507   5.180   1.076   8.897
11816SOL    HW247508   5.334   1.095   8.846
11817SOL     OW47509   5.128   1.054   8.597
11817SOL    HW147510   5.074   1.054   8.682
11817SOL    HW247511   5.174   1.142   8.587
11818SOL     OW47512   4.684   1.355   8.843
11818SOL    HW147513   4.599   1.406   8.833
11818SOL    HW247514   4.682   1.274   8.785
11819SOL     OW47515   4.175   1.228   8.082
11819SOL    HW147516   4.118   1.179   8.149
11819SOL    HW247517   4.270   1.199   8.092
11820SOL     OW47518   4.371   0.593   7.986
11820SOL    HW147519   4.409   0.666   7.930
11820SOL    HW247520   4.359   0.511   7.931
11821SOL     OW47521   5.008   0.538   9.205
11821SOL    HW147522   5.108   0.538   9.202
11821SOL    HW247523   4.976   0.468   9.269
11822SOL     OW47524   4.124   1.370   7.542
11822SOL    HW147525   4.141   1.431   7.465
11822SOL    HW247526   4.151   1.415   7.627
11823SOL     OW47527   4.249   0.306   8.426
11823SOL    HW147528   4.300   0.391   8.415
11823SOL    HW247529   4.310   0.229   8.409
11824SOL     OW47530   4.002   0.772   7.889
11824SOL    HW147531   4.029   0.790   7.983
11824SOL    HW247532   3.902   0.767   7.883
11825SOL     OW47533   4.459   1.730   7.964
11825SOL    HW147534   4.533   1.670   7.934
11825SOL    HW247535   4.440   1.798   7.893
11826SOL     OW47536   5.467   1.662   7.798
11826SOL    HW147537   5.555   1.618   7.787
11826SOL    HW247538   5.431   1.689   7.709
11827SOL     OW47539   5.381   0.345   8.486
11827SOL    HW147540   5.412   0.435   8.516
11827SOL    HW247541   5.281   0.346   8.476
11828SOL     OW47542   4.756   0.355   7.758
11828SOL    HW147543   4.809   0.436   7.783
11828SOL    HW247544   4.738   0.300   7.839
11829SOL     OW47545   3.871   1.026   8.978
11829SOL    HW147546   3.962   1.061   9.001
11829SOL    HW247547   3.832   0.980   9.057
11830SOL     OW47548   4.215   0.762   7.465
11830SOL    HW147549   4.145   0.834   7.464
11830SOL    HW247550   4.232   0.731   7.372
11831SOL     OW47551   4.365   1.622   8.195
11831SOL    HW147552   4.412   1.670   8.121
11831SOL    HW247553   4.287   1.571   8.158
11832SOL     OW47554   4.682   0.625   8.966
11832SOL    HW147555   4.700   0.547   9.026
11832SOL    HW247556   4.764   0.645   8.912
11833SOL     OW47557   5.280   1.438   8.173
11833SOL    HW147558   5.291   1.454   8.271
11833SOL    HW247559   5.335   1.504   8.122
11834SOL     OW47560   4.015   1.251   7.857
11834SOL    HW147561   4.069   1.246   7.941
11834SOL    HW247562   4.063   1.205   7.783
11835SOL     OW47563   4.888   0.310   7.519
11835SOL    HW147564   4.972   0.257   7.534
11835SOL    HW247565   4.840   0.323   7.606
11836SOL     OW47566   3.996   0.547   8.631
11836SOL    HW147567   4.003   0.450   8.610
11836SOL    HW247568   3.929   0.590   8.570
11837SOL     OW47569   5.133   0.779   8.687
11837SOL    HW147570   5.155   0.873   8.659
11837SOL    HW247571   5.213   0.737   8.730
11838SOL     OW47572   4.070   0.267   7.845
11838SOL    HW147573   4.015   0.305   7.920
11838SOL    HW247574   4.045   0.312   7.759
11839SOL     OW47575   5.231   1.741   8.694
11839SOL    HW147576   5.151   1.751   8.635
11839SOL    HW247577   5.314   1.735   8.638
11840SOL     OW47578   5.452   0.588   8.584
11840SOL    HW147579   5.539   0.636   8.590
11840SOL    HW247580   5.402   0.597   8.670
11841SOL     OW47581   5.471   1.729   8.537
11841SOL    HW147582   5.511   1.763   8.622
11841SOL    HW247583   5.542   1.722   8.468
11842SOL     OW47584   4.575   0.463   8.129
11842SOL    HW147585   4.660   0.506   8.159
11842SOL    HW247586   4.518   0.531   8.082
11843SOL     OW47587   4.910   0.998   7.515
11843SOL    HW147588   4.927   0.940   7.595
11843SOL    HW247589   4.836   0.958   7.460
11844SOL     OW47590   4.698   0.420   9.172
11844SOL    HW147591   4.776   0.408   9.234
11844SOL    HW247592   4.613   0.424   9.225
11845SOL     OW47593   5.403   0.676   7.725
11845SOL    HW147594   5.369   0.590   7.685
11845SOL    HW247595   5.434   0.660   7.818
11846SOL     OW47596   4.461   0.080   9.065
11846SOL    HW147597   4.532   0.020   9.028
11846SOL    HW247598   4.483   0.104   9.159
11847SOL     OW47599   5.390   0.680   8.330
11847SOL    HW147600   5.352   0.772   8.337
11847SOL    HW247601   5.406   0.643   8.421
11848SOL     OW47602   4.796   1.325   9.110
11848SOL    HW147603   4.836   1.234   9.105
11848SOL    HW247604   4.744   1.344   9.026
11849SOL     OW47605   4.453   1.150   9.097
11849SOL    HW147606   4.394   1.227   9.120
11849SOL    HW247607   4.455   1.085   9.173
11850SOL     OW47608   5.074   9.993   8.294
11850SOL    HW147609   5.018   0.076   8.289
11850SOL    HW247610   5.156   0.005   8.237
11851SOL     OW47611   5.442   0.246   9.164
11851SOL    HW147612   5.459   0.222   9.259
11851SOL    HW247613   5.416   0.164   9.114
11852SOL     OW47614   3.713   0.755   7.881
11852SOL    HW147615   3.688   0.669   7.925
11852SOL    HW247616   3.703   0.830   7.946
11853SOL     OW47617   4.023   0.172   8.284
11853SOL    HW147618   4.104   0.223   8.313
11853SOL    HW247619   4.043   0.074   8.285
11854SOL     OW47620   4.016   0.284   8.572
11854SOL    HW147621   3.954   0.224   8.522
11854SOL    HW247622   4.105   0.287   8.526
11855SOL     OW47623   4.749   0.830   8.296
11855SOL    HW147624   4.683   0.869   8.232
11855SOL    HW247625   4.765   0.734   8.272
11856SOL     OW47626   3.889   1.497   7.789
11856SOL    HW147627   3.931   1.408   7.804
11856SOL    HW247628   3.942   1.548   7.722
11857SOL     OW47629   5.159   1.337   8.621
11857SOL    HW147630   5.119   1.377   8.538
11857SOL    HW247631   5.093   1.344   8.696
11858SOL     OW47632   3.910   1.620   8.039
11858SOL    HW147633   3.817   1.631   8.073
11858SOL    HW247634   3.908   1.586   7.945
11859SOL     OW47635   5.423   1.391   8.667
11859SOL    HW147636   5.448   1.424   8.758
11859SOL    HW247637   5.325   1.375   8.662
11860SOL     OW47638   4.037   0.965   7.512
11860SOL    HW147639   3.985   1.029   7.455
11860SOL    HW247640   4.097   1.016   7.574
11861SOL     OW47641   4.672   1.130   8.678
11861SOL    HW147642   4.725   1.050   8.651
11861SOL    HW247643   4.610   1.156   8.604
11862SOL     OW47644   3.790   0.787   7.615
11862SOL    HW147645   3.879   0.742   7.603
11862SOL    HW247646   3.756   0.771   7.707
11863SOL     OW47647   5.249   0.898   7.792
11863SOL    HW147648   5.298   0.812   7.776
11863SOL    HW247649   5.288   0.970   7.735
11864SOL     OW47650   4.568   1.834   8.408
11864SOL    HW147651   4.606   1.750   8.370
11864SOL    HW247652   4.489   1.812   8.465
11865SOL     OW47653   4.476   0.858   7.512
11865SOL    HW147654   4.517   0.776   7.551
11865SOL    HW247655   4.379   0.841   7.492
11866SOL     OW47656   5.060   0.397   7.845
11866SOL    HW147657   5.019   0.471   7.791
11866SOL    HW247658   5.159   0.410   7.850
11867SOL     OW47659   4.007   0.689   8.858
11867SOL    HW147660   4.003   0.624   8.782
11867SOL    HW247661   3.960   0.650   8.937
11868SOL     OW47662   3.880   0.255   8.814
11868SOL    HW147663   3.932   0.272   8.730
11868SOL    HW247664   3.786   0.286   8.801
11869SOL     OW47665   4.743   0.868   8.585
11869SOL    HW147666   4.747   0.854   8.486
11869SOL    HW247667   4.661   0.824   8.622
11870SOL     OW47668   5.333   0.419   7.871
11870SOL    HW147669   5.424   0.379   7.863
11870SOL    HW247670   5.323   0.462   7.961
11871SOL     OW47671   4.615   1.579   8.321
11871SOL    HW147672   4.676   1.535   8.255
11871SOL    HW247673   4.522   1.581   8.285
11872SOL     OW47674   4.505   0.348   7.655
11872SOL    HW147675   4.439   0.343   7.731
11872SOL    HW247676   4.598   0.347   7.692
11873SOL     OW47677   5.423   1.637   8.065
11873SOL    HW147678   5.389   1.724   8.099
11873SOL    HW247679   5.435   1.643   7.965
11874SOL     OW47680   4.858   0.904   7.975
11874SOL    HW147681   4.914   0.931   8.053
11874SOL    HW247682   4.763   0.897   8.003
11875SOL     OW47683   4.553   1.622   9.008
11875SOL    HW147684   4.502   1.573   8.938
11875SOL    HW247685   4.548   1.572   9.094
11876SOL     OW47686   4.982   0.959   8.214
11876SOL    HW147687   4.908   0.901   8.249
11876SOL    HW247688   4.983   1.045   8.264
11877SOL     OW47689   4.017   1.093   8.262
11877SOL    HW147690   3.923   1.127   8.269
11877SOL    HW247691   4.053   1.077   8.354
11878SOL     OW47692   4.596   0.925   8.039
11878SOL    HW147693   4.555   0.872   7.965
11878SOL    HW247694   4.536   1.002   8.062
11879SOL     OW47695   4.960   1.368   8.807
11879SOL    HW147696   5.002   1.453   8.840
11879SOL    HW247697   4.860   1.374   8.819
11880SOL     OW47698   5.344   1.806   7.581
11880SOL    HW147699   5.404   1.877   7.544
11880SOL    HW247700   5.316   1.744   7.508
11881SOL     OW47701   4.551   0.765   8.758
11881SOL    HW147702   4.537   0.852   8.806
11881SOL    HW247703   4.592   0.699   8.821
11882SOL     OW47704   3.769   1.869   8.795
11882SOL    HW147705   3.714   1.952   8.791
11882SOL    HW247706   3.756   1.824   8.883
11883SOL     OW47707   4.484   0.783   7.832
11883SOL    HW147708   4.398   0.826   7.805
11883SOL    HW247709   4.522   0.733   7.754
11884SOL     OW47710   4.058   0.553   8.337
11884SOL    HW147711   4.113   0.506   8.268
11884SOL    HW247712   4.106   0.552   8.425
11885SOL     OW47713   4.043   1.673   7.642
11885SOL    HW147714   4.131   1.640   7.677
11885SOL    HW247715   4.011   1.749   7.699
11886SOL     OW47716   5.012   1.760   8.528
11886SOL    HW147717   5.043   1.778   8.434
11886SOL    HW247718   4.934   1.698   8.526
11887SOL     OW47719   3.759   1.177   8.338
11887SOL    HW147720   3.671   1.175   8.291
11887SOL    HW247721   3.756   1.118   8.418
11888SOL     OW47722   4.534   0.016   7.792
11888SOL    HW147723   4.570   9.973   7.710
11888SOL    HW247724   4.437   0.034   7.782
11889SOL     OW47725   3.742   1.168   7.881
11889SOL    HW147726   3.830   1.212   7.898
11889SOL    HW247727   3.738   1.136   7.787
11890SOL     OW47728   5.235   0.321   8.967
11890SOL    HW147729   5.175   0.401   8.967
11890SOL    HW247730   5.299   0.328   9.044
11891SOL     OW47731   4.952   0.246   8.302
11891SOL    HW147732   4.965   0.304   8.222
11891SOL    HW247733   5.004   0.283   8.379
11892SOL     OW47734   5.124   0.178   7.576
11892SOL    HW147735   5.164   0.100   7.526
11892SOL    HW247736   5.097   0.148   7.667
11893SOL     OW47737   5.334   0.052   8.998
11893SOL    HW147738   5.344   9.996   8.915
11893SOL    HW247739   5.285   0.136   8.975
11894SOL     OW47740   4.418   0.247   8.121
11894SOL    HW147741   4.415   0.185   8.199
11894SOL    HW247742   4.479   0.324   8.141
11895SOL     OW47743   5.001   0.628   8.497
11895SOL    HW147744   4.999   0.682   8.413
11895SOL    HW247745   5.045   0.681   8.569
11896SOL     OW47746   5.281   0.009   7.872
11896SOL    HW147747   5.289   9.950   7.792
11896SOL    HW247748   5.193   0.057   7.869
11897SOL     OW47749   4.274   1.386   9.141
11897SOL    HW147750   4.228   1.455   9.084
11897SOL    HW247751   4.362   1.422   9.172
11898SOL     OW47752   4.125   1.121   9.034
11898SOL    HW147753   4.179   1.101   8.952
11898SOL    HW247754   4.147   1.212   9.067
11899SOL     OW47755   3.820   1.404   8.486
11899SOL    HW147756   3.802   1.333   8.419
11899SOL    HW247757   3.743   1.412   8.549
11900SOL     OW47758   4.804   0.571   8.233
11900SOL    HW147759   4.882   0.525   8.191
11900SOL    HW247760   4.785   0.531   8.322
11901SOL     OW47761   5.490   0.635   9.034
11901SOL    HW147762   5.485   0.727   8.995
11901SOL    HW247763   5.585   0.612   9.053
11902SOL     OW47764   5.107   0.374   8.494
11902SOL    HW147765   5.069   0.466   8.493
11902SOL    HW247766   5.095   0.334   8.585
11903SOL     OW47767   5.276   0.524   9.177
11903SOL    HW147768   5.362   0.558   9.138
11903SOL    HW247769   5.296   0.465   9.255
11904SOL     OW47770   4.984   0.859   7.742
11904SOL    HW147771   4.932   0.880   7.825
11904SOL    HW247772   5.081   0.876   7.759
11905SOL     OW47773   5.225   0.963   8.067
11905SOL    HW147774   5.214   0.943   7.969
11905SOL    HW247775   5.138   0.948   8.114
11906SOL     OW47776   5.482   0.871   8.907
11906SOL    HW147777   5.402   0.931   8.900
11906SOL    HW247778   5.565   0.926   8.908
11907SOL     OW47779   5.301   0.393   7.598
11907SOL    HW147780   5.321   0.397   7.696
11907SOL    HW247781   5.233   0.321   7.581
11908SOL     OW47782   4.420   1.499   8.804
11908SOL    HW147783   4.356   1.574   8.787
11908SOL    HW247784   4.389   1.417   8.756
11909SOL     OW47785   3.747   1.722   9.030
11909SOL    HW147786   3.835   1.732   9.076
11909SOL    HW247787   3.673   1.720   9.097
11910SOL     OW47788   3.836   0.289   8.119
11910SOL    HW147789   3.842   0.387   8.135
11910SOL    HW247790   3.905   0.242   8.174
11911SOL     OW47791   5.091   1.590   8.886
11911SOL    HW147792   5.028   1.655   8.929
11911SOL    HW247793   5.148   1.639   8.820
11912SOL     OW47794   4.038   0.641   7.642
11912SOL    HW147795   4.110   0.681   7.586
11912SOL    HW247796   4.041   0.682   7.734
11913SOL     OW47797   5.424   0.272   8.759
11913SOL    HW147798   5.357   0.307   8.824
11913SOL    HW247799   5.392   0.289   8.665
11914SOL     OW47800   4.119   1.815   8.106
11914SOL    HW147801   4.040   1.758   8.085
11914SOL    HW247802   4.190   1.801   8.037
11915SOL     OW47803   4.058   1.311   8.599
11915SOL    HW147804   4.054   1.337   8.696
11915SOL    HW247805   3.979   1.349   8.551
11916SOL     OW47806   4.863   1.581   9.207
11916SOL    HW147807   4.839   1.488   9.179
11916SOL    HW247808   4.878   1.638   9.126
11917SOL     OW47809   4.456   1.334   7.821
11917SOL    HW147810   4.473   1.260   7.756
11917SOL    HW247811   4.460   1.299   7.914
11918SOL     OW47812   4.068   0.844   8.147
11918SOL    HW147813   4.064   0.939   8.179
11918SOL    HW247814   4.151   0.800   8.183
11919SOL     OW47815   4.023   0.372   7.596
11919SOL    HW147816   3.939   0.356   7.543
11919SOL    HW247817   4.035   0.470   7.610
11920SOL     OW47818   3.829   0.550   8.194
11920SOL    HW147819   3.789   0.640   8.207
11920SOL    HW247820   3.914   0.544   8.247
11921SOL     OW47821   4.205   1.134   7.662
11921SOL    HW147822   4.304   1.126   7.667
11921SOL    HW247823   4.181   1.216   7.610
11922SOL     OW47824   4.804   0.646   7.469
11922SOL    HW147825   4.786   0.735   7.428
11922SOL    HW247826   4.867   0.594   7.411
11923SOL     OW47827   4.573   0.625   7.617
11923SOL    HW147828   4.660   0.624   7.569
11923SOL    HW247829   4.535   0.532   7.621
11924SOL     OW47830   5.036   0.127   7.835
11924SOL    HW147831   4.980   0.089   7.908
11924SOL    HW247832   5.037   0.226   7.841
11925SOL     OW47833   5.059   0.535   8.931
11925SOL    HW147834   5.037   0.549   9.027
11925SOL    HW247835   4.993   0.584   8.874
11926SOL     OW47836   3.773   9.904   7.614
11926SOL    HW147837   3.823   9.845   7.551
11926SOL    HW247838   3.838   9.949   7.675
11927SOL     OW47839   4.109   1.053   8.518
11927SOL    HW147840   4.080   0.992   8.592
11927SOL    HW247841   4.095   1.148   8.546
11928SOL     OW47842   5.375   1.051   7.605
11928SOL    HW147843   5.474   1.066   7.613
11928SOL    HW247844   5.348   1.059   7.509
11929SOL     OW47845   4.329   0.697   8.616
11929SOL    HW147846   4.412   0.726   8.664
11929SOL    HW247847   4.251   0.703   8.677
11930SOL     OW47848   4.534   1.009   8.880
11930SOL    HW147849   4.594   1.060   8.819
11930SOL    HW247850   4.518   1.062   8.964
11931SOL     OW47851   4.872   1.060   9.075
11931SOL    HW147852   4.795   0.996   9.087
11931SOL    HW247853   4.956   1.017   9.108
11932SOL     OW47854   4.879   0.027   8.024
11932SOL    HW147855   4.863   9.952   8.089
11932SOL    HW247856   4.797   0.084   8.018
11933SOL     OW47857   4.902   1.753   8.997
11933SOL    HW147858   4.831   1.773   8.929
11933SOL    HW247859   4.931   1.837   9.042
11934SOL     OW47860   4.420   0.106   8.359
11934SOL    HW147861   4.398   0.023   8.410
11934SOL    HW247862   4.520   0.116   8.354
11935SOL     OW47863   4.003   1.833   8.652
11935SOL    HW147864   3.973   1.778   8.574
11935SOL    HW247865   3.925   1.848   8.713
11936SOL     OW47866   4.684   1.229   8.263
11936SOL    HW147867   4.711   1.310   8.211
11936SOL    HW247868   4.764   1.188   8.306
11937SOL     OW47869   4.332   0.991   8.348
11937SOL    HW147870   4.333   0.898   8.312
11937SOL    HW247871   4.257   1.001   8.413
11938SOL     OW47872   3.748   1.012   8.556
11938SOL    HW147873   3.826   0.993   8.616
11938SOL    HW247874   3.711   0.926   8.522
11939SOL     OW47875   3.953   0.020   7.802
11939SOL    HW147876   4.008   0.103   7.811
11939SOL    HW247877   3.868   0.031   7.854
11940SOL     OW47878   4.417   0.651   9.056
11940SOL    HW147879   4.367   0.707   8.991
11940SOL    HW247880   4.510   0.635   9.022
11941SOL     OW47881   3.779   1.078   7.620
11941SOL    HW147882   3.809   0.982   7.616
11941SOL    HW247883   3.825   1.130   7.548
11942SOL     OW47884   5.437   0.272   8.220
11942SOL    HW147885   5.421   0.287   8.318
11942SOL    HW247886   5.535   0.262   8.204
11943SOL     OW47887   4.500   1.179   8.466
11943SOL    HW147888   4.445   1.104   8.428
11943SOL    HW247889   4.565   1.210   8.397
11944SOL     OW47890   4.925   0.592   7.712
11944SOL    HW147891   4.950   0.685   7.739
11944SOL    HW247892   4.880   0.594   7.623
11945SOL     OW47893   5.242   1.449   9.068
11945SOL    HW147894   5.201   1.367   9.106
11945SOL    HW247895   5.178   1.492   9.003
11946SOL     OW47896   3.950   0.920   8.725
11946SOL    HW147897   3.973   0.831   8.764
11946SOL    HW247898   3.926   0.984   8.798
11947SOL     OW47899   4.332   1.698   8.466
11947SOL    HW147900   4.333   1.664   8.372
11947SOL    HW247901   4.262   1.649   8.518
11948SOL     OW47902   4.442   1.140   8.141
11948SOL    HW147903   4.527   1.181   8.175
11948SOL    HW247904   4.400   1.086   8.214
11949SOL     OW47905   4.648   1.531   7.889
11949SOL    HW147906   4.723   1.548   7.824
11949SOL    HW247907   4.586   1.462   7.850
11950SOL     OW47908   3.813   0.823   8.252
11950SOL    HW147909   3.907   0.822   8.219
11950SOL    HW247910   3.757   0.881   8.193
11951SOL     OW47911   3.745   0.903   9.186
11951SOL    HW147912   3.646   0.908   9.181
11951SOL    HW247913   3.774   0.876   9.278
11952SOL     OW47914   4.683   1.768   8.812
11952SOL    HW147915   4.649   1.707   8.883
11952SOL    HW247916   4.609   1.826   8.779
11953SOL     OW47917   4.932   1.160   8.397
11953SOL    HW147918   4.946   1.258   8.410
11953SOL    HW247919   4.979   1.110   8.470
11954SOL     OW47920   4.121   0.432   9.110
11954SOL    HW147921   4.193   0.380   9.065
11954SOL    HW247922   4.162   0.509   9.160
11955SOL     OW47923   4.236   0.886   7.792
11955SOL    HW147924   4.218   0.976   7.753
11955SOL    HW247925   4.151   0.847   7.827
11956SOL     OW47926   5.299   0.937   8.390
11956SOL    HW147927   5.316   1.016   8.331
11956SOL    HW247928   5.239   0.965   8.466
11957SOL     OW47929   5.087   0.259   8.739
11957SOL    HW147930   5.133   0.288   8.823
11957SOL    HW247931   4.995   0.228   8.761
11958SOL     OW47932   3.732   0.109   7.930
11958SOL    HW147933   3.632   0.101   7.932
11958SOL    HW247934   3.761   0.173   8.002
11959SOL     OW47935   4.798   0.160   9.113
11959SOL    HW147936   4.891   0.190   9.095
11959SOL    HW247937   4.740   0.240   9.129
11960SOL     OW47938   4.147   1.595   9.004
11960SOL    HW147939   4.092   1.655   9.062
11960SOL    HW247940   4.184   1.649   8.927
11961SOL     OW47941   5.478   1.458   8.928
11961SOL    HW147942   5.519   1.548   8.947
11961SOL    HW247943   5.394   1.449   8.981
11962SOL     OW47944   4.743   0.509   8.492
11962SOL    HW147945   4.829   0.554   8.517
11962SOL    HW247946   4.726   0.432   8.554
11963SOL     OW47947   4.160   1.500   8.051
11963SOL    HW147948   4.160   1.401   8.066
11963SOL    HW247949   4.066   1.535   8.060
11964SOL     OW47950   4.785   1.601   8.541
11964SOL    HW147951   4.738   1.627   8.625
11964SOL    HW247952   4.717   1.589   8.468
11965SOL     OW47953   3.986   1.763   9.169
11965SOL    HW147954   4.009   1.861   9.167
11965SOL    HW247955   3.986   1.731   9.264
11966SOL     OW47956   3.830   1.305   9.010
11966SOL    HW147957   3.814   1.208   8.988
11966SOL    HW247958   3.756   1.360   8.972
11967SOL     OW47959   3.886   1.671   8.449
11967SOL    HW147960   3.870   1.573   8.461
11967SOL    HW247961   3.910   1.690   8.354
11968SOL     OW47962   4.691   0.144   8.334
11968SOL    HW147963   4.780   0.187   8.317
11968SOL    HW247964   4.700   0.079   8.410
11969SOL     OW47965   4.711   1.132   7.831
11969SOL    HW147966   4.797   1.183   7.838
11969SOL    HW247967   4.713   1.054   7.894
11970SOL     OW47968   5.288   0.490   8.144
11970SOL    HW147969   5.318   0.568   8.199
11970SOL    HW247970   5.342   0.409   8.168
11971SOL     OW47971   4.484   1.095   7.673
11971SOL    HW147972   4.571   1.103   7.722
11971SOL    HW247973   4.485   1.014   7.614
11972SOL     OW47974   4.496   0.145   7.469
11972SOL    HW147975   4.526   0.058   7.508
11972SOL    HW247976   4.497   0.216   7.540
11973SOL     OW47977   4.201   0.434   8.141
11973SOL    HW147978   4.257   0.351   8.144
11973SOL    HW247979   4.247   0.503   8.086
11974SOL     OW47980   4.277   1.064   8.815
11974SOL    HW147981   4.370   1.038   8.840
11974SOL    HW247982   4.280   1.146   8.757
11975SOL     OW47983   5.442   1.122   8.716
11975SOL    HW147984   5.447   1.220   8.695
11975SOL    HW247985   5.497   1.071   8.649
11976SOL     OW47986   3.919   1.201   7.412
11976SOL    HW147987   3.888   1.228   7.320
11976SOL    HW247988   3.982   1.270   7.447
11977SOL     OW47989   5.013   1.105   8.842
11977SOL    HW147990   4.958   1.071   8.917
11977SOL    HW247991   4.994   1.202   8.827
11978SOL     OW47992   4.237   1.724   8.772
11978SOL    HW147993   4.311   1.790   8.760
11978SOL    HW247994   4.153   1.759   8.730
11979SOL     OW47995   3.893   0.581   9.087
11979SOL    HW147996   3.964   0.511   9.092
11979SOL    HW247997   3.899   0.640   9.167
11980SOL     OW47998   5.332   1.513   8.426
11980SOL    HW147999   5.366   1.605   8.445
11980SOL    HW248000   5.358   1.452   8.502
11981SOL     OW48001   3.675   0.961   8.054
11981SOL    HW148002   3.705   1.041   8.002
11981SOL    HW248003   3.576   0.967   8.068
11982SOL     OW48004   4.253   0.796   8.893
11982SOL    HW148005   4.160   0.759   8.892
11982SOL    HW248006   4.252   0.891   8.864
11983SOL     OW48007   5.328   1.164   8.225
11983SOL    HW148008   5.301   1.258   8.207
11983SOL    HW248009   5.288   1.103   8.156
11984SOL     OW48010   4.406   0.541   8.411
11984SOL    HW148011   4.504   0.521   8.415
11984SOL    HW248012   4.381   0.598   8.489
11985SOL     OW48013   4.329   1.287   8.654
11985SOL    HW148014   4.238   1.304   8.616
11985SOL    HW248015   4.390   1.256   8.581
11986SOL     OW48016   3.819   0.735   8.515
11986SOL    HW148017   3.883   0.792   8.567
11986SOL    HW248018   3.825   0.759   8.418
11987SOL     OW48019   4.043   1.386   8.858
11987SOL    HW148020   4.086   1.464   8.904
11987SOL    HW248021   3.967   1.352   8.914
11988SOL     OW48022   5.332   1.696   9.166
11988SOL    HW148023   5.301   1.603   9.146
11988SOL    HW248024   5.301   1.757   9.093
11989SOL     OW48025   4.977   1.237   7.859
11989SOL    HW148026   5.067   1.244   7.902
11989SOL    HW248027   4.988   1.233   7.760
11990SOL     OW48028   4.337   0.338   7.873
11990SOL    HW148029   4.244   0.307   7.856
11990SOL    HW248030   4.374   0.293   7.954
11991SOL     OW48031   5.304   0.042   8.146
11991SOL    HW148032   5.298   0.029   8.047
11991SOL    HW248033   5.347   0.131   8.166
11992SOL     OW48034   4.885   0.720   8.792
11992SOL    HW148035   4.979   0.749   8.774
11992SOL    HW248036   4.823   0.765   8.728
11993SOL     OW48037   4.319   0.737   8.228
11993SOL    HW148038   4.343   0.668   8.296
11993SOL    HW248039   4.339   0.701   8.136
11994SOL     OW48040   4.972   1.427   8.433
11994SOL    HW148041   4.905   1.480   8.484
11994SOL    HW248042   4.992   1.473   8.346
11995SOL     OW48043   5.018   0.440   8.116
11995SOL    HW148044   5.012   0.421   8.018
11995SOL    HW248045   5.113   0.464   8.139
11996SOL     OW48046   4.813   1.337   9.935
11996SOL    HW148047   4.891   1.311   9.877
11996SOL    HW248048   4.752   1.398   9.883
11997SOL     OW48049   5.254   1.385   9.744
11997SOL    HW148050   5.306   1.455   9.694
11997SOL    HW248051   5.316   1.312   9.772
11998SOL     OW48052   4.245   1.502   9.625
11998SOL    HW148053   4.199   1.527   9.710
11998SOL    HW248054   4.321   1.439   9.646
11999SOL     OW48055   4.114   1.236   9.889
11999SOL    HW148056   4.052   1.231   9.967
11999SOL    HW248057   4.204   1.201   9.916
12000SOL     OW48058   4.410   0.623   9.709
12000SOL    HW148059   4.431   0.712   9.670
12000SOL    HW248060   4.377   0.562   9.636
12001SOL     OW48061   4.132   1.392   9.385
12001SOL    HW148062   4.189   1.408   9.305
12001SOL    HW248063   4.169   1.442   9.463
12002SOL     OW48064   3.943   0.849   9.698
12002SOL    HW148065   3.922   0.755   9.724
12002SOL    HW248066   3.879   0.912   9.742
12003SOL     OW48067   4.635   1.749   9.831
12003SOL    HW148068   4.641   1.652   9.807
12003SOL    HW248069   4.572   1.795   9.770
12004SOL     OW48070   5.412   1.561   9.598
12004SOL    HW148071   5.511   1.546   9.595
12004SOL    HW248072   5.387   1.636   9.537
12005SOL     OW48073   4.743   0.365   9.602
12005SOL    HW148074   4.787   0.441   9.649
12005SOL    HW248075   4.705   0.302   9.670
12006SOL     OW48076   4.214   0.666   9.233
12006SOL    HW148077   4.185   0.762   9.233
12006SOL    HW248078   4.296   0.656   9.176
12007SOL     OW48079   3.981   1.303   9.658
12007SOL    HW148080   4.033   1.277   9.740
12007SOL    HW248081   4.020   1.256   9.579
12008SOL     OW48082   4.889   0.347   9.364
12008SOL    HW148083   4.955   0.272   9.370
12008SOL    HW248084   4.841   0.356   9.451
12009SOL     OW48085   4.016   0.478   9.684
12009SOL    HW148086   4.070   0.494   9.766
12009SOL    HW248087   4.059   0.523   9.606
12010SOL     OW48088   4.606   0.521   9.872
12010SOL    HW148089   4.667   0.589   9.913
12010SOL    HW248090   4.542   0.566   9.811
12011SOL     OW48091   4.942   0.975   9.410
12011SOL    HW148092   4.960   0.943   9.503
12011SOL    HW248093   4.904   0.901   9.355
12012SOL     OW48094   5.428   0.664   9.544
12012SOL    HW148095   5.378   0.585   9.508
12012SOL    HW248096   5.477   0.636   9.627
12013SOL     OW48097   4.692   1.758   9.360
12013SOL    HW148098   4.733   1.707   9.285
12013SOL    HW248099   4.706   1.709   9.446
12014SOL     OW48100   3.728   0.690   9.798
12014SOL    HW148101   3.717   0.631   9.878
12014SOL    HW248102   3.721   0.785   9.826
12015SOL     OW48103   3.877   1.551   9.588
12015SOL    HW148104   3.918   1.461   9.600
12015SOL    HW248105   3.936   1.607   9.530
12016SOL     OW48106   3.872   1.616   9.855
12016SOL    HW148107   3.779   1.612   9.891
12016SOL    HW248108   3.869   1.599   9.756
12017SOL     OW48109   4.175   0.942   9.238
12017SOL    HW148110   4.151   0.993   9.156
12017SOL    HW248111   4.165   1.000   9.319
12018SOL     OW48112   3.806   0.839   9.447
12018SOL    HW148113   3.876   0.840   9.519
12018SOL    HW248114   3.729   0.782   9.476
12019SOL     OW48115   5.278   0.881   9.632
12019SOL    HW148116   5.328   0.804   9.594
12019SOL    HW248117   5.295   0.963   9.576
12020SOL     OW48118   4.449   0.913   9.254
12020SOL    HW148119   4.478   0.828   9.298
12020SOL    HW248120   4.350   0.914   9.244
12021SOL     OW48121   5.050   0.449   9.711
12021SOL    HW148122   5.003   0.512   9.650
12021SOL    HW248123   5.148   0.446   9.688
12022SOL     OW48124   5.323   0.402   9.668
12022SOL    HW148125   5.411   0.360   9.650
12022SOL    HW248126   5.321   0.438   9.761
12023SOL     OW48127   4.545   0.418   9.422
12023SOL    HW148128   4.462   0.400   9.474
12023SOL    HW248129   4.625   0.404   9.481
12024SOL     OW48130   4.658   1.296   9.357
12024SOL    HW148131   4.709   1.276   9.441
12024SOL    HW248132   4.720   1.295   9.279
12025SOL     OW48133   4.852   0.944   9.874
12025SOL    HW148134   4.903   1.017   9.919
12025SOL    HW248135   4.767   0.981   9.837
12026SOL     OW48136   5.177   0.866   0.044
12026SOL    HW148137   5.102   0.837   0.102
12026SOL    HW248138   5.158   0.958   0.008
12027SOL     OW48139   4.610   1.033   9.764
12027SOL    HW148140   4.562   0.967   9.706
12027SOL    HW248141   4.545   1.079   9.824
12028SOL     OW48142   3.735   0.406   9.632
12028SOL    HW148143   3.731   0.334   9.700
12028SOL    HW248144   3.822   0.455   9.639
12029SOL     OW48145   5.375   1.779   9.428
12029SOL    HW148146   5.461   1.829   9.418
12029SOL    HW248147   5.346   1.745   9.338
12030SOL     OW48148   4.464   0.871   9.587
12030SOL    HW148149   4.365   0.879   9.580
12030SOL    HW248150   4.498   0.814   9.512
12031SOL     OW48151   4.012   1.772   9.459
12031SOL    HW148152   4.101   1.800   9.423
12031SOL    HW248153   3.995   1.818   9.546
12032SOL     OW48154   4.438   0.029   9.637
12032SOL    HW148155   4.480   9.971   9.567
12032SOL    HW248156   4.350   0.061   9.605
12033SOL     OW48157   3.717   1.207   9.696
12033SOL    HW148158   3.798   1.264   9.713
12033SOL    HW248159   3.719   1.174   9.602
12034SOL     OW48160   5.071   0.145   9.403
12034SOL    HW148161   5.076   0.050   9.372
12034SOL    HW248162   5.065   0.147   9.503
12035SOL     OW48163   4.410   0.392   0.013
12035SOL    HW148164   4.429   0.415   0.108
12035SOL    HW248165   4.486   0.421   9.955
12036SOL     OW48166   5.297   0.023   9.687
12036SOL    HW148167   5.318   9.974   9.602
12036SOL    HW248168   5.213   0.076   9.675
12037SOL     OW48169   5.002   0.865   9.654
12037SOL    HW148170   4.959   0.896   9.739
12037SOL    HW248171   5.101   0.875   9.662
12038SOL     OW48172   5.385   0.821   9.874
12038SOL    HW148173   5.337   0.843   9.788
12038SOL    HW248174   5.320   0.827   9.950
12039SOL     OW48175   5.245   0.372   9.407
12039SOL    HW148176   5.272   0.376   9.503
12039SOL    HW248177   5.195   0.287   9.390
12040SOL     OW48178   4.154   0.629   9.500
12040SOL    HW148179   4.173   0.623   9.402
12040SOL    HW248180   4.167   0.723   9.531
12041SOL     OW48181   4.072   1.798   9.907
12041SOL    HW148182   3.987   1.745   9.909
12041SOL    HW248183   4.150   1.735   9.914
12042SOL     OW48184   4.437   1.319   9.692
12042SOL    HW148185   4.452   1.257   9.614
12042SOL    HW248186   4.422   1.265   9.774
12043SOL     OW48187   3.693   0.544   0.027
12043SOL    HW148188   3.717   0.618   0.090
12043SOL    HW248189   3.722   0.456   0.066
12044SOL     OW48190   4.192   1.131   9.445
12044SOL    HW148191   4.291   1.138   9.458
12044SOL    HW248192   4.156   1.219   9.415
12045SOL     OW48193   4.833   0.727   9.303
12045SOL    HW148194   4.786   0.780   9.233
12045SOL    HW248195   4.899   0.666   9.260
12046SOL     OW48196   4.562   0.699   9.394
12046SOL    HW148197   4.659   0.713   9.372
12046SOL    HW248198   4.542   0.601   9.396
12047SOL     OW48199   5.062   0.171   9.673
12047SOL    HW148200   5.000   0.126   9.737
12047SOL    HW248201   5.061   0.270   9.689
12048SOL     OW48202   3.719   9.954   9.410
12048SOL    HW148203   3.771   9.974   9.327
12048SOL    HW248204   3.774   9.979   9.490
12049SOL     OW48205   5.343   1.081   9.456
12049SOL    HW148206   5.439   1.098   9.480
12049SOL    HW248207   5.333   1.084   9.356
12050SOL     OW48208   4.880   0.109   9.867
12050SOL    HW148209   4.899   0.168   9.945
12050SOL    HW248210   4.790   0.131   9.829
12051SOL     OW48211   3.980   0.209   9.729
12051SOL    HW148212   3.994   0.305   9.705
12051SOL    HW248213   3.884   0.194   9.752
12052SOL     OW48214   3.767   1.114   9.445
12052SOL    HW148215   3.795   1.018   9.437
12052SOL    HW248216   3.819   1.169   9.380
12053SOL     OW48217   5.441   0.265   0.040
12053SOL    HW148218   5.393   0.290   0.124
12053SOL    HW248219   5.527   0.219   0.064
12054SOL     OW48220   4.910   0.628   9.559
12054SOL    HW148221   4.942   0.712   9.602
12054SOL    HW248222   4.877   0.648   9.466
12055SOL     OW48223   4.504   1.490   9.241
12055SOL    HW148224   4.460   1.549   9.308
12055SOL    HW248225   4.563   1.424   9.288
12056SOL     OW48226   4.405   1.163   9.923
12056SOL    HW148227   4.421   1.246   9.975
12056SOL    HW248228   4.415   1.083   9.983
12057SOL     OW48229   4.656   1.485   9.754
12057SOL    HW148230   4.714   1.497   9.674
12057SOL    HW248231   4.578   1.428   9.730
12058SOL     OW48232   4.187   0.893   9.580
12058SOL    HW148233   4.183   0.982   9.535
12058SOL    HW248234   4.104   0.879   9.635
12059SOL     OW48235   3.715   0.203   9.814
12059SOL    HW148236   3.637   0.144   9.793
12059SOL    HW248237   3.710   0.231   9.910
12060SOL     OW48238   4.124   1.512   9.884
12060SOL    HW148239   4.129   1.413   9.884
12060SOL    HW248240   4.029   1.541   9.882
12061SOL     OW48241   4.749   1.218   9.606
12061SOL    HW148242   4.830   1.252   9.652
12061SOL    HW248243   4.702   1.152   9.664
12062SOL     OW48244   5.345   0.490   9.922
12062SOL    HW148245   5.291   0.541   9.989
12062SOL    HW248246   5.382   0.408   9.965
12063SOL     OW48247   4.460   1.148   9.475
12063SOL    HW148248   4.529   1.200   9.426
12063SOL    HW248249   4.495   1.055   9.492
12064SOL     OW48250   4.533   0.146   9.315
12064SOL    HW148251   4.536   0.069   9.379
12064SOL    HW248252   4.537   0.232   9.365
12065SOL     OW48253   4.213   0.532   9.876
12065SOL    HW148254   4.263   0.469   9.936
12065SOL    HW248255   4.278   0.577   9.814
12066SOL     OW48256   3.911   1.265   9.275
12066SOL    HW148257   3.886   1.289   9.181
12066SOL    HW248258   3.984   1.325   9.307
12067SOL     OW48259   4.351   1.635   9.409
12067SOL    HW148260   4.310   1.724   9.390
12067SOL    HW248261   4.318   1.601   9.497
12068SOL     OW48262   3.718   0.968   9.832
12068SOL    HW148263   3.721   1.058   9.788
12068SOL    HW248264   3.630   0.957   9.878
12069SOL     OW48265   4.998   1.291   9.707
12069SOL    HW148266   5.085   1.327   9.740
12069SOL    HW248267   5.008   1.259   9.613
12070SOL     OW48268   4.358   0.351   9.605
12070SOL    HW148269   4.291   0.281   9.582
12070SOL    HW248270   4.400   0.331   9.694
12071SOL     OW48271   5.311   0.032   9.961
12071SOL    HW148272   5.300   0.024   9.862
12071SOL    HW248273   5.361   0.116   9.982
12072SOL     OW48274   4.967   0.500   9.979
12072SOL    HW148275   5.003   0.492   9.886
12072SOL    HW248276   4.954   0.409   0.018
12073SOL     OW48277   4.779   3.298   0.743
12073SOL    HW148278   4.875   3.328   0.747
12073SOL    HW248279   4.739   3.325   0.656
12074SOL     OW48280   5.310   3.115   0.574
12074SOL    HW148281   5.330   3.179   0.648
12074SOL    HW248282   5.393   3.064   0.550
12075SOL     OW48283   5.305   2.502   1.385
12075SOL    HW148284   5.240   2.448   1.439
12075SOL    HW248285   5.359   2.560   1.446
12076SOL     OW48286   4.119   2.055   9.982
12076SOL    HW148287   4.095   1.962   9.954
12076SOL    HW248288   4.123   2.114   9.902
12077SOL     OW48289   5.037   3.389   0.807
12077SOL    HW148290   5.043   3.486   0.833
12077SOL    HW248291   5.128   3.352   0.792
12078SOL     OW48292   4.861   1.921   1.326
12078SOL    HW148293   4.792   1.864   1.372
12078SOL    HW248294   4.908   1.866   1.257
12079SOL     OW48295   4.647   2.731   1.753
12079SOL    HW148296   4.647   2.653   1.690
12079SOL    HW248297   4.562   2.782   1.744
12080SOL     OW48298   4.257   3.333   0.423
12080SOL    HW148299   4.217   3.363   0.509
12080SOL    HW248300   4.332   3.269   0.441
12081SOL     OW48301   4.283   1.886   0.152
12081SOL    HW148302   4.369   1.928   0.181
12081SOL    HW248303   4.235   1.949   0.090
12082SOL     OW48304   5.274   2.899   1.543
12082SOL    HW148305   5.179   2.917   1.518
12082SOL    HW248306   5.334   2.927   1.468
12083SOL     OW48307   5.113   2.901   1.219
12083SOL    HW148308   5.066   2.903   1.307
12083SOL    HW248309   5.161   2.988   1.205
12084SOL     OW48310   4.677   3.227   1.445
12084SOL    HW148311   4.594   3.283   1.440
12084SOL    HW248312   4.664   3.143   1.392
12085SOL     OW48313   4.169   3.081   0.689
12085SOL    HW148314   4.120   3.029   0.760
12085SOL    HW248315   4.266   3.060   0.693
12086SOL     OW48316   4.428   2.506   0.576
12086SOL    HW148317   4.459   2.576   0.511
12086SOL    HW248318   4.379   2.434   0.526
12087SOL     OW48319   4.947   2.388   1.749
12087SOL    HW148320   5.038   2.366   1.784
12087SOL    HW248321   4.880   2.325   1.789
12088SOL     OW48322   4.105   3.241   0.199
12088SOL    HW148323   4.118   3.293   0.114
12088SOL    HW248324   4.152   3.287   0.274
12089SOL     OW48325   4.293   2.204   1.015
12089SOL    HW148326   4.357   2.280   1.004
12089SOL    HW248327   4.326   2.124   0.966
12090SOL     OW48328   4.055   2.574   0.522
12090SOL    HW148329   4.076   2.614   0.611
12090SOL    HW248330   3.957   2.580   0.504
12091SOL     OW48331   4.509   3.573   0.649
12091SOL    HW148332   4.558   3.507   0.592
12091SOL    HW248333   4.451   3.631   0.592
12092SOL     OW48334   5.435   3.437   0.405
12092SOL    HW148335   5.527   3.402   0.386
12092SOL    HW248336   5.415   3.514   0.343
12093SOL     OW48337   5.366   2.157   1.135
12093SOL    HW148338   5.399   2.250   1.149
12093SOL    HW248339   5.266   2.156   1.136
12094SOL     OW48340   4.723   2.179   0.316
12094SOL    HW148341   4.782   2.260   0.309
12094SOL    HW248342   4.730   2.141   0.409
12095SOL     OW48343   4.074   2.550   0.088
12095SOL    HW148344   4.103   2.644   0.073
12095SOL    HW248345   4.140   2.488   0.047
12096SOL     OW48346   4.366   3.447   0.836
12096SOL    HW148347   4.422   3.498   0.771
12096SOL    HW248348   4.285   3.411   0.790
12097SOL     OW48349   4.685   2.506   1.593
12097SOL    HW148350   4.733   2.438   1.649
12097SOL    HW248351   4.748   2.543   1.525
12098SOL     OW48352   5.306   3.281   0.811
12098SOL    HW148353   5.316   3.305   0.908
12098SOL    HW248354   5.355   3.348   0.755
12099SOL     OW48355   4.001   3.108   0.470
12099SOL    HW148356   4.058   3.101   0.551
12099SOL    HW248357   4.047   3.064   0.393
12100SOL     OW48358   4.845   2.063   0.086
12100SOL    HW148359   4.942   2.048   0.108
12100SOL    HW248360   4.799   2.105   0.165
12101SOL     OW48361   4.101   2.399   1.293
12101SOL    HW148362   4.078   2.320   1.237
12101SOL    HW248363   4.071   2.483   1.247
12102SOL     OW48364   5.087   2.627   1.273
12102SOL    HW148365   5.103   2.722   1.249
12102SOL    HW248366   5.171   2.587   1.310
12103SOL     OW48367   4.076   2.114   0.460
12103SOL    HW148368   4.007   2.159   0.516
12103SOL    HW248369   4.051   2.121   0.363
12104SOL     OW48370   5.238   3.583   1.314
12104SOL    HW148371   5.157   3.587   1.255
12104SOL    HW248372   5.320   3.575   1.257
12105SOL     OW48373   5.449   2.411   1.173
12105SOL    HW148374   5.542   2.448   1.174
12105SOL    HW248375   5.397   2.446   1.251
12106SOL     OW48376   5.509   3.575   1.165
12106SOL    HW148377   5.539   3.618   1.250
12106SOL    HW248378   5.589   3.558   1.107
12107SOL     OW48379   4.644   2.350   0.657
12107SOL    HW148380   4.710   2.394   0.718
12107SOL    HW248381   4.577   2.418   0.626
12108SOL     OW48382   4.893   2.837   0.182
12108SOL    HW148383   4.920   2.758   0.237
12108SOL    HW248384   4.796   2.828   0.157
12109SOL     OW48385   4.756   2.221   1.853
12109SOL    HW148386   4.818   2.163   1.905
12109SOL    HW248387   4.666   2.220   1.897
12110SOL     OW48388   5.430   2.540   0.398
12110SOL    HW148389   5.378   2.456   0.385
12110SOL    HW248390   5.490   2.531   0.477
12111SOL     OW48391   4.680   3.614   0.100
12111SOL    HW148392   4.667   3.597   0.002
12111SOL    HW248393   4.699   3.527   0.146
12112SOL     OW48394   4.458   1.849   1.715
12112SOL    HW148395   4.488   1.757   1.691
12112SOL    HW248396   4.475   1.865   1.813
12113SOL     OW48397   5.381   2.521   0.931
12113SOL    HW148398   5.349   2.615   0.946
12113SOL    HW248399   5.395   2.477   1.020
12114SOL     OW48400   4.757   3.173   1.709
12114SOL    HW148401   4.803   3.084   1.713
12114SOL    HW248402   4.733   3.195   1.615
12115SOL     OW48403   4.496   3.063   1.729
12115SOL    HW148404   4.423   3.125   1.759
12115SOL    HW248405   4.585   3.105   1.746
12116SOL     OW48406   5.086   1.824   0.901
12116SOL    HW148407   5.034   1.909   0.902
12116SOL    HW248408   5.179   1.842   0.869
12117SOL     OW48409   5.413   2.064   1.810
12117SOL    HW148410   5.374   2.099   1.895
12117SOL    HW248411   5.399   1.965   1.806
12118SOL     OW48412   3.781   2.589   0.501
12118SOL    HW148413   3.778   2.522   0.575
12118SOL    HW248414   3.740   2.674   0.532
12119SOL     OW48415   4.023   2.092   0.803
12119SOL    HW148416   4.088   2.166   0.790
12119SOL    HW248417   4.071   2.004   0.800
12120SOL     OW48418   4.042   2.203   1.108
12120SOL    HW148419   3.992   2.124   1.071
12120SOL    HW248420   4.137   2.200   1.079
12121SOL     OW48421   4.766   2.681   0.930
12121SOL    HW148422   4.701   2.725   0.869
12121SOL    HW248423   4.784   2.588   0.897
12122SOL     OW48424   3.889   3.362   0.407
12122SOL    HW148425   3.930   3.272   0.418
12122SOL    HW248426   3.943   3.416   0.342
12123SOL     OW48427   5.155   3.182   1.241
12123SOL    HW148428   5.114   3.221   1.158
12123SOL    HW248429   5.090   3.189   1.316
12124SOL     OW48430   3.911   3.477   0.660
12124SOL    HW148431   3.818   3.487   0.696
12124SOL    HW248432   3.907   3.445   0.565
12125SOL     OW48433   5.418   3.228   1.290
12125SOL    HW148434   5.438   3.266   1.381
12125SOL    HW248435   5.320   3.210   1.282
12126SOL     OW48436   4.150   2.809   0.049
12126SOL    HW148437   4.115   2.862   9.972
12126SOL    HW248438   4.151   2.866   0.131
12127SOL     OW48439   4.635   2.994   1.301
12127SOL    HW148440   4.683   2.910   1.276
12127SOL    HW248441   4.581   3.026   1.223
12128SOL     OW48442   3.867   2.683   0.242
12128SOL    HW148443   3.928   2.625   0.187
12128SOL    HW248444   3.834   2.631   0.321
12129SOL     OW48445   5.239   2.742   0.395
12129SOL    HW148446   5.310   2.671   0.398
12129SOL    HW248447   5.257   2.803   0.318
12130SOL     OW48448   4.558   3.674   0.993
12130SOL    HW148449   4.605   3.593   0.958
12130SOL    HW248450   4.492   3.646   1.062
12131SOL     OW48451   4.431   2.798   0.075
12131SOL    HW148452   4.486   2.715   0.086
12131SOL    HW248453   4.335   2.773   0.065
12132SOL     OW48454   5.038   2.265   0.462
12132SOL    HW148455   4.987   2.316   0.392
12132SOL    HW248456   5.136   2.281   0.449
12133SOL     OW48457   3.997   2.347   1.547
12133SOL    HW148458   4.057   2.365   1.469
12133SOL    HW248459   3.902   2.360   1.520
12134SOL     OW48460   4.699   2.740   1.197
12134SOL    HW148461   4.731   2.723   1.104
12134SOL    HW248462   4.613   2.693   1.212
12135SOL     OW48463   5.326   2.263   0.474
12135SOL    HW148464   5.424   2.257   0.457
12135SOL    HW248465   5.310   2.286   0.570
12136SOL     OW48466   4.626   3.409   0.939
12136SOL    HW148467   4.683   3.370   0.866
12136SOL    HW248468   4.530   3.404   0.912
12137SOL     OW48469   4.500   2.345   0.267
12137SOL    HW148470   4.422   2.319   0.325
12137SOL    HW248471   4.576   2.283   0.284
12138SOL     OW48472   4.669   3.170   0.204
12138SOL    HW148473   4.713   3.141   0.289
12138SOL    HW248474   4.731   3.230   0.153
12139SOL     OW48475   5.428   3.476   0.673
12139SOL    HW148476   5.382   3.559   0.704
12139SOL    HW248477   5.417   3.467   0.574
12140SOL     OW48478   4.864   2.737   0.584
12140SOL    HW148479   4.916   2.773   0.661
12140SOL    HW248480   4.778   2.788   0.574
12141SOL     OW48481   4.533   3.521   1.635
12141SOL    HW148482   4.495   3.455   1.569
12141SOL    HW248483   4.539   3.478   1.725
12142SOL     OW48484   4.991   2.811   0.816
12142SOL    HW148485   4.930   2.747   0.862
12142SOL    HW248486   4.992   2.898   0.865
12143SOL     OW48487   4.035   2.941   0.882
12143SOL    HW148488   3.939   2.963   0.892
12143SOL    HW248489   4.078   2.934   0.972
12144SOL     OW48490   4.627   2.868   0.549
12144SOL    HW148491   4.582   2.805   0.486
12144SOL    HW248492   4.560   2.906   0.613
12145SOL     OW48493   4.956   3.216   1.429
12145SOL    HW148494   5.000   3.299   1.463
12145SOL    HW248495   4.857   3.229   1.429
12146SOL     OW48496   3.753   2.122   0.367
12146SOL    HW148497   3.828   2.143   0.304
12146SOL    HW248498   3.776   2.156   0.458
12147SOL     OW48499   5.379   3.658   0.254
12147SOL    HW148500   5.456   3.720   0.265
12147SOL    HW248501   5.350   3.657   0.158
12148SOL     OW48502   4.497   2.638   1.420
12148SOL    HW148503   4.489   2.732   1.454
12148SOL    HW248504   4.573   2.592   1.466
12149SOL     OW48505   3.773   3.702   1.405
12149SOL    HW148506   3.726   3.791   1.406
12149SOL    HW248507   3.764   3.658   1.494
12150SOL     OW48508   4.501   2.689   0.386
12150SOL    HW148509   4.404   2.709   0.372
12150SOL    HW248510   4.539   2.650   0.301
12151SOL     OW48511   4.000   2.411   0.927
12151SOL    HW148512   4.071   2.390   0.860
12151SOL    HW248513   4.000   2.340   0.998
12152SOL     OW48514   4.020   3.548   0.253
12152SOL    HW148515   4.068   3.578   0.170
12152SOL    HW248516   4.032   3.616   0.325
12153SOL     OW48517   5.006   3.591   1.162
12153SOL    HW148518   5.031   3.611   1.067
12153SOL    HW248519   4.928   3.528   1.163
12154SOL     OW48520   3.752   2.968   0.958
12154SOL    HW148521   3.656   2.988   0.934
12154SOL    HW248522   3.773   2.874   0.934
12155SOL     OW48523   4.440   1.888   0.461
12155SOL    HW148524   4.477   1.925   0.376
12155SOL    HW248525   4.407   1.963   0.518
12156SOL     OW48526   3.731   3.037   0.468
12156SOL    HW148527   3.823   3.073   0.484
12156SOL    HW248528   3.724   3.001   0.375
12157SOL     OW48529   5.294   2.149   1.573
12157SOL    HW148530   5.240   2.233   1.567
12157SOL    HW248531   5.331   2.139   1.665
12158SOL     OW48532   4.975   2.078   0.925
12158SOL    HW148533   4.993   2.144   0.853
12158SOL    HW248534   5.017   2.108   1.011
12159SOL     OW48535   5.107   2.002   0.149
12159SOL    HW148536   5.157   1.996   0.063
12159SOL    HW248537   5.105   1.911   0.192
12160SOL     OW48538   5.273   1.872   1.571
12160SOL    HW148539   5.246   1.834   1.483
12160SOL    HW248540   5.274   1.972   1.566
12161SOL     OW48541   4.416   2.199   0.696
12161SOL    HW148542   4.413   2.120   0.758
12161SOL    HW248543   4.507   2.240   0.699
12162SOL     OW48544   4.974   2.436   1.115
12162SOL    HW148545   4.969   2.475   1.023
12162SOL    HW248546   5.011   2.504   1.178
12163SOL     OW48547   5.256   1.950   0.536
12163SOL    HW148548   5.298   2.027   0.488
12163SOL    HW248549   5.157   1.953   0.523
12164SOL     OW48550   4.319   3.272   1.801
12164SOL    HW148551   4.267   3.326   1.735
12164SOL    HW248552   4.398   3.325   1.833
12165SOL     OW48553   3.814   3.200   1.113
12165SOL    HW148554   3.795   3.122   1.053
12165SOL    HW248555   3.739   3.210   1.178
12166SOL     OW48556   4.828   2.428   0.849
12166SOL    HW148557   4.903   2.378   0.806
12166SOL    HW248558   4.787   2.372   0.921
12167SOL     OW48559   5.424   2.468   1.738
12167SOL    HW148560   5.424   2.542   1.670
12167SOL    HW248561   5.518   2.450   1.766
12168SOL     OW48562   5.090   2.189   1.154
12168SOL    HW148563   5.054   2.282   1.141
12168SOL    HW248564   5.069   2.159   1.247
12169SOL     OW48565   5.202   2.328   1.831
12169SOL    HW148566   5.281   2.378   1.798
12169SOL    HW248567   5.229   2.268   1.907
12170SOL     OW48568   4.982   2.646   0.362
12170SOL    HW148569   4.934   2.673   0.445
12170SOL    HW248570   5.078   2.675   0.369
12171SOL     OW48571   5.238   2.806   0.676
12171SOL    HW148572   5.225   2.795   0.577
12171SOL    HW248573   5.149   2.798   0.721
12172SOL     OW48574   5.438   2.675   1.547
12172SOL    HW148575   5.371   2.749   1.543
12172SOL    HW248576   5.530   2.714   1.547
12173SOL     OW48577   5.249   2.228   0.208
12173SOL    HW148578   5.279   2.234   0.303
12173SOL    HW248579   5.188   2.149   0.197
12174SOL     OW48580   4.432   3.382   1.415
12174SOL    HW148581   4.373   3.462   1.413
12174SOL    HW248582   4.407   3.321   1.339
12175SOL     OW48583   3.763   3.564   1.644
12175SOL    HW148584   3.847   3.573   1.697
12175SOL    HW248585   3.684   3.570   1.705
12176SOL     OW48586   3.865   2.212   0.612
12176SOL    HW148587   3.827   2.297   0.650
12176SOL    HW248588   3.905   2.157   0.686
12177SOL     OW48589   5.089   3.438   1.508
12177SOL    HW148590   5.019   3.500   1.544
12177SOL    HW248591   5.147   3.487   1.443
12178SOL     OW48592   4.035   2.394   0.305
12178SOL    HW148593   4.053   2.451   0.225
12178SOL    HW248594   4.055   2.445   0.388
12179SOL     OW48595   5.475   2.081   1.378
12179SOL    HW148596   5.408   2.108   1.447
12179SOL    HW248597   5.439   2.101   1.287
12180SOL     OW48598   4.135   3.680   0.718
12180SOL    HW148599   4.062   3.615   0.693
12180SOL    HW248600   4.195   3.693   0.639
12181SOL     OW48601   4.078   3.177   1.193
12181SOL    HW148602   4.085   3.191   1.292
12181SOL    HW248603   3.984   3.194   1.164
12182SOL     OW48604   4.871   3.408   1.814
12182SOL    HW148605   4.836   3.318   1.790
12182SOL    HW248606   4.869   3.468   1.734
12183SOL     OW48607   4.453   3.152   0.493
12183SOL    HW148608   4.461   3.088   0.416
12183SOL    HW248609   4.459   3.102   0.579
12184SOL     OW48610   4.093   2.692   0.767
12184SOL    HW148611   4.084   2.786   0.800
12184SOL    HW248612   4.180   2.654   0.798
12185SOL     OW48613   3.986   2.149   0.202
12185SOL    HW148614   4.038   2.130   0.119
12185SOL    HW248615   4.001   2.244   0.229
12186SOL     OW48616   3.796   2.449   0.746
12186SOL    HW148617   3.735   2.517   0.788
12186SOL    HW248618   3.871   2.428   0.808
12187SOL     OW48619   4.186   2.991   0.264
12187SOL    HW148620   4.286   2.993   0.274
12187SOL    HW248621   4.155   3.079   0.230
12188SOL     OW48622   4.836   2.474   0.012
12188SOL    HW148623   4.845   2.562   9.965
12188SOL    HW248624   4.910   2.413   9.984
12189SOL     OW48625   4.587   2.571   0.143
12189SOL    HW148626   4.675   2.547   0.101
12189SOL    HW248627   4.545   2.489   0.182
12190SOL     OW48628   4.991   1.999   0.497
12190SOL    HW148629   4.898   1.986   0.530
12190SOL    HW248630   5.006   2.096   0.477
12191SOL     OW48631   5.112   2.359   1.516
12191SOL    HW148632   5.054   2.392   1.591
12191SOL    HW248633   5.066   2.286   1.467
12192SOL     OW48634   3.890   1.886   0.169
12192SOL    HW148635   3.961   1.818   0.187
12192SOL    HW248636   3.929   1.978   0.172
12193SOL     OW48637   4.159   2.924   1.125
12193SOL    HW148638   4.208   2.898   1.208
12193SOL    HW248639   4.123   3.017   1.135
12194SOL     OW48640   5.336   2.869   0.168
12194SOL    HW148641   5.430   2.887   0.198
12194SOL    HW248642   5.337   2.832   0.075
12195SOL     OW48643   4.364   2.486   1.236
12195SOL    HW148644   4.404   2.544   1.306
12195SOL    HW248645   4.273   2.455   1.265
12196SOL     OW48646   4.496   2.895   1.518
12196SOL    HW148647   4.555   2.935   1.447
12196SOL    HW248648   4.494   2.955   1.598
12197SOL     OW48649   4.851   2.910   1.697
12197SOL    HW148650   4.773   2.852   1.718
12197SOL    HW248651   4.935   2.867   1.731
12198SOL     OW48652   4.730   2.102   0.583
12198SOL    HW148653   4.704   2.196   0.603
12198SOL    HW248654   4.723   2.047   0.666
12199SOL     OW48655   4.883   3.589   1.605
12199SOL    HW148656   4.811   3.617   1.541
12199SOL    HW248657   4.903   3.664   1.667
12200SOL     OW48658   4.378   1.994   0.864
12200SOL    HW148659   4.302   1.938   0.832
12200SOL    HW248660   4.447   1.936   0.907
12201SOL     OW48661   4.010   3.670   1.268
12201SOL    HW148662   3.990   3.606   1.194
12201SOL    HW248663   3.928   3.683   1.324
12202SOL     OW48664   4.701   3.070   0.870
12202SOL    HW148665   4.730   3.151   0.820
12202SOL    HW248666   4.779   3.030   0.917
12203SOL     OW48667   4.356   2.853   0.938
12203SOL    HW148668   4.358   2.758   0.906
12203SOL    HW248669   4.282   2.865   1.004
12204SOL     OW48670   4.037   1.847   0.521
12204SOL    HW148671   4.055   1.944   0.503
12204SOL    HW248672   3.940   1.828   0.505
12205SOL     OW48673   4.405   2.444   1.628
12205SOL    HW148674   4.365   2.507   1.562
12205SOL    HW248675   4.505   2.452   1.625
12206SOL     OW48676   3.759   2.930   0.215
12206SOL    HW148677   3.802   2.839   0.221
12206SOL    HW248678   3.811   2.986   0.150
12207SOL     OW48679   5.460   2.141   0.877
12207SOL    HW148680   5.434   2.140   0.973
12207SOL    HW248681   5.535   2.206   0.863
12208SOL     OW48682   4.505   3.055   1.065
12208SOL    HW148683   4.450   2.980   1.028
12208SOL    HW248684   4.579   3.076   1.002
12209SOL     OW48685   4.885   2.404   0.278
12209SOL    HW148686   4.916   2.491   0.317
12209SOL    HW248687   4.869   2.416   0.180
12210SOL     OW48688   5.242   3.308   1.696
12210SOL    HW148689   5.202   3.226   1.739
12210SOL    HW248690   5.175   3.347   1.632
12211SOL     OW48691   4.433   3.256   0.080
12211SOL    HW148692   4.397   3.343   0.115
12211SOL    HW248693   4.519   3.235   0.125
12212SOL     OW48694   4.357   3.511   1.101
12212SOL    HW148695   4.347   3.497   1.003
12212SOL    HW248696   4.354   3.423   1.149
12213SOL     OW48697   4.465   3.003   0.734
12213SOL    HW148698   4.550   3.038   0.774
12213SOL    HW248699   4.418   2.946   0.801
12214SOL     OW48700   4.635   3.366   0.516
12214SOL    HW148701   4.696   3.377   0.437
12214SOL    HW248702   4.574   3.288   0.500
12215SOL     OW48703   3.814   2.729   0.836
12215SOL    HW148704   3.905   2.696   0.811
12215SOL    HW248705   3.766   2.760   0.754
12216SOL     OW48706   4.664   3.670   1.446
12216SOL    HW148707   4.620   3.612   1.515
12216SOL    HW248708   4.596   3.734   1.409
12217SOL     OW48709   4.937   3.002   1.010
12217SOL    HW148710   4.953   3.100   1.023
12217SOL    HW248711   4.981   2.952   1.084
12218SOL     OW48712   4.278   2.227   1.743
12218SOL    HW148713   4.318   2.160   1.681
12218SOL    HW248714   4.313   2.318   1.721
12219SOL     OW48715   4.235   2.732   0.373
12219SOL    HW148716   4.193   2.818   0.345
12219SOL    HW248717   4.168   2.675   0.419
12220SOL     OW48718   5.299   2.777   1.014
12220SOL    HW148719   5.316   2.856   0.955
12220SOL    HW248720   5.240   2.803   1.090
12221SOL     OW48721   5.021   2.118   1.414
12221SOL    HW148722   5.065   2.082   1.497
12221SOL    HW248723   4.954   2.051   1.381
12222SOL     OW48724   4.931   2.018   1.713
12222SOL    HW148725   4.951   2.025   1.811
12222SOL    HW248726   4.862   2.085   1.688
12223SOL     OW48727   4.163   3.433   1.625
12223SOL    HW148728   4.100   3.483   1.684
12223SOL    HW248729   4.198   3.493   1.553
12224SOL     OW48730   5.470   3.317   1.544
12224SOL    HW148731   5.519   3.402   1.563
12224SOL    HW248732   5.388   3.311   1.601
12225SOL     OW48733   4.727   2.308   1.074
12225SOL    HW148734   4.806   2.351   1.117
12225SOL    HW248735   4.721   2.212   1.103
12226SOL     OW48736   4.156   3.355   0.684
12226SOL    HW148737   4.151   3.256   0.691
12226SOL    HW248738   4.063   3.393   0.687
12227SOL     OW48739   4.783   3.427   1.161
12227SOL    HW148740   4.722   3.422   1.082
12227SOL    HW248741   4.729   3.432   1.245
12228SOL     OW48742   3.995   3.600   1.793
12228SOL    HW148743   4.025   3.695   1.781
12228SOL    HW248744   3.992   3.578   1.890
12229SOL     OW48745   3.872   3.475   1.071
12229SOL    HW148746   3.857   3.377   1.084
12229SOL    HW248747   3.907   3.492   0.979
12230SOL     OW48748   4.722   2.000   0.838
12230SOL    HW148749   4.812   2.020   0.878
12230SOL    HW248750   4.669   1.945   0.902
12231SOL     OW48751   4.777   3.077   0.437
12231SOL    HW148752   4.863   3.089   0.486
12231SOL    HW248753   4.726   3.000   0.478
12232SOL     OW48754   5.301   2.325   0.747
12232SOL    HW148755   5.322   2.409   0.798
12232SOL    HW248756   5.352   2.249   0.785
12233SOL     OW48757   4.465   2.994   0.265
12233SOL    HW148758   4.538   3.055   0.237
12233SOL    HW248759   4.463   2.914   0.205
12234SOL     OW48760   4.532   2.000   0.215
12234SOL    HW148761   4.573   1.918   0.174
12234SOL    HW248762   4.604   2.060   0.248
12235SOL     OW48763   4.171   2.326   0.731
12235SOL    HW148764   4.263   2.287   0.731
12235SOL    HW248765   4.156   2.377   0.647
12236SOL     OW48766   4.279   2.981   1.368
12236SOL    HW148767   4.350   2.947   1.429
12236SOL    HW248768   4.238   3.064   1.407
12237SOL     OW48769   5.446   2.956   1.340
12237SOL    HW148770   5.447   3.053   1.315
12237SOL    HW248771   5.506   2.905   1.278
12238SOL     OW48772   3.898   3.111   0.054
12238SOL    HW148773   3.815   3.160   0.028
12238SOL    HW248774   3.957   3.171   0.109
12239SOL     OW48775   4.335   3.482   0.205
12239SOL    HW148776   4.330   3.581   0.219
12239SOL    HW248777   4.308   3.435   0.289
12240SOL     OW48778   5.011   2.953   1.468
12240SOL    HW148779   4.952   2.916   1.540
12240SOL    HW248780   4.991   3.050   1.456
12241SOL     OW48781   4.248   3.599   1.418
12241SOL    HW148782   4.310   3.677   1.411
12241SOL    HW248783   4.169   3.614   1.359
12242SOL     OW48784   4.018   2.285   1.820
12242SOL    HW148785   4.117   2.274   1.819
12242SOL    HW248786   3.987   2.320   1.731
12243SOL     OW48787   5.353   3.372   1.060
12243SOL    HW148788   5.401   3.458   1.077
12243SOL    HW248789   5.367   3.310   1.137
12244SOL     OW48790   3.674   2.814   0.617
12244SOL    HW148791   3.696   2.897   0.566
12244SOL    HW248792   3.577   2.814   0.642
12245SOL     OW48793   5.334   3.001   0.854
12245SOL    HW148794   5.308   3.097   0.840
12245SOL    HW248795   5.302   2.946   0.777
12246SOL     OW48796   4.476   2.416   1.004
12246SOL    HW148797   4.567   2.379   1.021
12246SOL    HW248798   4.434   2.444   1.090
12247SOL     OW48799   4.350   3.248   1.191
12247SOL    HW148800   4.254   3.221   1.184
12247SOL    HW248801   4.407   3.180   1.145
12248SOL     OW48802   4.028   2.605   1.130
12248SOL    HW148803   4.037   2.702   1.106
12248SOL    HW248804   4.012   2.552   1.047
12249SOL     OW48805   4.118   3.198   1.468
12249SOL    HW148806   4.145   3.283   1.515
12249SOL    HW248807   4.052   3.149   1.524
12250SOL     OW48808   5.349   3.552   1.773
12250SOL    HW148809   5.309   3.461   1.763
12250SOL    HW248810   5.317   3.611   1.700
12251SOL     OW48811   5.039   3.083   0.534
12251SOL    HW148812   5.132   3.098   0.569
12251SOL    HW248813   5.044   3.040   0.443
12252SOL     OW48814   4.313   2.271   0.459
12252SOL    HW148815   4.228   2.221   0.443
12252SOL    HW248816   4.356   2.235   0.542
12253SOL     OW48817   5.330   1.909   0.793
12253SOL    HW148818   5.303   1.925   0.698
12253SOL    HW248819   5.386   1.985   0.826
12254SOL     OW48820   4.837   2.615   1.401
12254SOL    HW148821   4.934   2.611   1.379
12254SOL    HW248822   4.789   2.667   1.329
12255SOL     OW48823   4.354   2.598   0.829
12255SOL    HW148824   4.391   2.531   0.894
12255SOL    HW248825   4.378   2.570   0.736
12256SOL     OW48826   4.978   3.268   1.046
12256SOL    HW148827   4.908   3.320   1.094
12256SOL    HW248828   4.997   3.311   0.957
12257SOL     OW48829   5.030   2.278   0.740
12257SOL    HW148830   5.010   2.267   0.642
12257SOL    HW248831   5.126   2.300   0.752
12258SOL     OW48832   5.472   3.193   2.507
12258SOL    HW148833   5.466   3.292   2.497
12258SOL    HW248834   5.530   3.156   2.435
12259SOL     OW48835   5.351   2.463   3.272
12259SOL    HW148836   5.281   2.414   3.324
12259SOL    HW248837   5.433   2.474   3.328
12260SOL     OW48838   4.090   2.010   1.786
12260SOL    HW148839   4.008   2.067   1.794
12260SOL    HW248840   4.167   2.067   1.758
12261SOL     OW48841   4.887   1.935   3.166
12261SOL    HW148842   4.809   1.889   3.209
12261SOL    HW248843   4.931   1.873   3.101
12262SOL     OW48844   4.708   2.753   3.580
12262SOL    HW148845   4.685   2.679   3.516
12262SOL    HW248846   4.625   2.803   3.605
12263SOL     OW48847   4.264   3.323   2.263
12263SOL    HW148848   4.204   3.326   2.343
12263SOL    HW248849   4.354   3.288   2.290
12264SOL     OW48850   4.227   1.856   1.970
12264SOL    HW148851   4.324   1.880   1.977
12264SOL    HW248852   4.184   1.911   1.898
12265SOL     OW48853   5.181   2.881   3.191
12265SOL    HW148854   5.102   2.919   3.239
12265SOL    HW248855   5.265   2.912   3.236
12266SOL     OW48856   5.177   2.877   2.918
12266SOL    HW148857   5.175   2.881   3.018
12266SOL    HW248858   5.201   2.967   2.881
12267SOL     OW48859   4.654   3.213   3.354
12267SOL    HW148860   4.568   3.258   3.331
12267SOL    HW248861   4.668   3.135   3.294
12268SOL     OW48862   4.426   2.459   2.374
12268SOL    HW148863   4.416   2.523   2.297
12268SOL    HW248864   4.398   2.368   2.344
12269SOL     OW48865   4.981   2.397   3.615
12269SOL    HW148866   5.052   2.385   3.684
12269SOL    HW248867   4.905   2.334   3.634
12270SOL     OW48868   4.146   3.236   2.019
12270SOL    HW148869   4.214   3.241   1.945
12270SOL    HW248870   4.190   3.262   2.105
12271SOL     OW48871   4.198   2.127   2.844
12271SOL    HW148872   4.208   2.212   2.793
12271SOL    HW248873   4.263   2.060   2.811
12272SOL     OW48874   5.462   3.452   2.196
12272SOL    HW148875   5.558   3.430   2.182
12272SOL    HW248876   5.433   3.519   2.127
12273SOL     OW48877   5.374   2.162   2.974
12273SOL    HW148878   5.414   2.253   2.988
12273SOL    HW248879   5.274   2.171   2.968
12274SOL     OW48880   4.802   2.205   2.187
12274SOL    HW148881   4.833   2.299   2.185
12274SOL    HW248882   4.803   2.171   2.281
12275SOL     OW48883   3.870   2.857   3.450
12275SOL    HW148884   3.962   2.887   3.478
12275SOL    HW248885   3.819   2.826   3.530
12276SOL     OW48886   4.253   3.485   2.674
12276SOL    HW148887   4.236   3.569   2.622
12276SOL    HW248888   4.215   3.407   2.625
12277SOL     OW48889   4.676   2.502   3.438
12277SOL    HW148890   4.704   2.424   3.494
12277SOL    HW248891   4.753   2.530   3.380
12278SOL     OW48892   4.937   2.065   1.991
12278SOL    HW148893   5.011   2.003   2.018
12278SOL    HW248894   4.896   2.106   2.072
12279SOL     OW48895   4.099   2.399   3.038
12279SOL    HW148896   4.083   2.304   3.065
12279SOL    HW248897   4.014   2.451   3.046
12280SOL     OW48898   5.133   2.609   3.179
12280SOL    HW148899   5.148   2.708   3.182
12280SOL    HW248900   5.216   2.562   3.208
12281SOL     OW48901   4.099   2.219   2.294
12281SOL    HW148902   4.043   2.225   2.377
12281SOL    HW248903   4.040   2.228   2.214
12282SOL     OW48904   5.468   2.411   3.026
12282SOL    HW148905   5.561   2.447   3.028
12282SOL    HW248906   5.421   2.436   3.111
12283SOL     OW48907   4.644   2.337   2.498
12283SOL    HW148908   4.698   2.390   2.564
12283SOL    HW248909   4.575   2.395   2.455
12284SOL     OW48910   4.937   2.819   2.029
12284SOL    HW148911   4.951   2.788   2.123
12284SOL    HW248912   4.900   2.745   1.974
12285SOL     OW48913   4.771   2.237   3.694
12285SOL    HW148914   4.833   2.207   3.767
12285SOL    HW248915   4.678   2.243   3.730
12286SOL     OW48916   5.429   2.530   2.223
12286SOL    HW148917   5.384   2.441   2.233
12286SOL    HW248918   5.503   2.537   2.290
12287SOL     OW48919   4.710   3.697   1.956
12287SOL    HW148920   4.779   3.722   1.888
12287SOL    HW248921   4.751   3.638   2.026
12288SOL     OW48922   4.450   1.892   3.609
12288SOL    HW148923   4.473   1.808   3.559
12288SOL    HW248924   4.521   1.910   3.677
12289SOL     OW48925   5.426   2.498   2.769
12289SOL    HW148926   5.422   2.598   2.776
12289SOL    HW248927   5.431   2.458   2.861
12290SOL     OW48928   4.738   3.157   3.610
12290SOL    HW148929   4.809   3.087   3.601
12290SOL    HW248930   4.712   3.190   3.519
12291SOL     OW48931   4.468   2.885   3.629
12291SOL    HW148932   4.436   2.979   3.641
12291SOL    HW248933   4.437   2.829   3.705
12292SOL     OW48934   5.082   1.826   2.735
12292SOL    HW148935   5.036   1.915   2.737
12292SOL    HW248936   5.171   1.836   2.690
12293SOL     OW48937   5.459   2.077   3.678
12293SOL    HW148938   5.398   2.121   3.743
12293SOL    HW248939   5.520   2.015   3.726
12294SOL     OW48940   3.756   2.583   2.408
12294SOL    HW148941   3.771   2.515   2.480
12294SOL    HW248942   3.741   2.673   2.450
12295SOL     OW48943   3.997   2.040   2.666
12295SOL    HW148944   4.055   2.073   2.740
12295SOL    HW248945   4.041   1.963   2.620
12296SOL     OW48946   4.062   2.100   3.081
12296SOL    HW148947   4.041   2.003   3.093
12296SOL    HW248948   4.113   2.113   2.995
12297SOL     OW48949   4.731   2.693   2.809
12297SOL    HW148950   4.633   2.713   2.811
12297SOL    HW248951   4.746   2.608   2.758
12298SOL     OW48952   3.850   3.399   2.167
12298SOL    HW148953   3.859   3.322   2.103
12298SOL    HW248954   3.908   3.474   2.136
12299SOL     OW48955   3.845   3.335   2.436
12299SOL    HW148956   3.769   3.386   2.477
12299SOL    HW248957   3.854   3.360   2.340
12300SOL     OW48958   4.680   2.981   3.193
12300SOL    HW148959   4.713   2.892   3.160
12300SOL    HW248960   4.621   3.023   3.124
12301SOL     OW48961   5.263   2.746   2.259
12301SOL    HW148962   5.323   2.667   2.246
12301SOL    HW248963   5.286   2.817   2.192
12302SOL     OW48964   4.648   3.657   2.919
12302SOL    HW148965   4.689   3.590   2.981
12302SOL    HW248966   4.550   3.638   2.910
12303SOL     OW48967   5.066   2.305   2.306
12303SOL    HW148968   5.019   2.366   2.243
12303SOL    HW248969   5.165   2.311   2.291
12304SOL     OW48970   3.960   2.468   3.353
12304SOL    HW148971   3.935   2.381   3.311
12304SOL    HW248972   3.926   2.469   3.447
12305SOL     OW48973   3.887   2.207   3.265
12305SOL    HW148974   3.953   2.170   3.200
12305SOL    HW248975   3.795   2.179   3.240
12306SOL     OW48976   4.724   2.730   3.084
12306SOL    HW148977   4.735   2.720   2.985
12306SOL    HW248978   4.644   2.678   3.115
12307SOL     OW48979   5.342   2.279   2.307
12307SOL    HW148980   5.435   2.247   2.291
12307SOL    HW248981   5.327   2.288   2.406
12308SOL     OW48982   4.552   3.318   2.891
12308SOL    HW148983   4.612   3.368   2.954
12308SOL    HW248984   4.505   3.383   2.832
12309SOL     OW48985   4.560   2.143   2.086
12309SOL    HW148986   4.490   2.168   2.153
12309SOL    HW248987   4.650   2.164   2.124
12310SOL     OW48988   5.463   3.469   2.465
12310SOL    HW148989   5.411   3.545   2.503
12310SOL    HW248990   5.449   3.465   2.366
12311SOL     OW48991   4.926   2.719   2.532
12311SOL    HW148992   4.966   2.694   2.621
12311SOL    HW248993   4.833   2.752   2.545
12312SOL     OW48994   5.011   2.696   2.795
12312SOL    HW148995   4.915   2.717   2.815
12312SOL    HW248996   5.069   2.764   2.840
12313SOL     OW48997   4.036   2.960   2.755
12313SOL    HW148998   3.944   2.994   2.738
12313SOL    HW248999   4.046   2.937   2.852
12314SOL     OW49000   3.747   2.203   2.267
12314SOL    HW149001   3.805   2.206   2.185
12314SOL    HW249002   3.803   2.214   2.349
12315SOL     OW49003   5.386   3.654   2.023
12315SOL    HW149004   5.473   3.704   2.014
12315SOL    HW249005   5.361   3.615   1.935
12316SOL     OW49006   4.522   2.599   3.220
12316SOL    HW149007   4.498   2.684   3.267
12316SOL    HW249008   4.572   2.539   3.283
12317SOL     OW49009   3.830   3.582   3.300
12317SOL    HW149010   3.836   3.681   3.288
12317SOL    HW249011   3.786   3.562   3.387
12318SOL     OW49012   3.989   2.377   2.775
12318SOL    HW149013   4.065   2.358   2.713
12318SOL    HW249014   4.025   2.394   2.867
12319SOL     OW49015   3.994   3.626   2.084
12319SOL    HW149016   4.083   3.658   2.053
12319SOL    HW249017   3.981   3.650   2.180
12320SOL     OW49018   3.759   3.042   2.781
12320SOL    HW149019   3.671   3.042   2.732
12320SOL    HW249020   3.757   2.971   2.852
12321SOL     OW49021   4.412   1.897   2.264
12321SOL    HW149022   4.440   1.882   2.169
12321SOL    HW249023   4.394   1.995   2.278
12322SOL     OW49024   3.696   3.073   2.398
12322SOL    HW149025   3.753   3.152   2.422
12322SOL    HW249026   3.702   3.057   2.299
12323SOL     OW49027   5.329   2.120   3.433
12323SOL    HW149028   5.269   2.200   3.437
12323SOL    HW249029   5.375   2.109   3.521
12324SOL     OW49030   4.985   2.090   2.760
12324SOL    HW149031   4.994   2.158   2.687
12324SOL    HW249032   5.028   2.125   2.844
12325SOL     OW49033   5.147   1.890   2.041
12325SOL    HW149034   5.242   1.860   2.035
12325SOL    HW249035   5.087   1.810   2.036
12326SOL     OW49036   5.284   1.850   3.411
12326SOL    HW149037   5.272   1.820   3.317
12326SOL    HW249038   5.300   1.948   3.414
12327SOL     OW49039   4.425   2.162   2.558
12327SOL    HW149040   4.415   2.080   2.615
12327SOL    HW249041   4.517   2.198   2.568
12328SOL     OW49042   5.009   2.477   2.971
12328SOL    HW149043   5.015   2.539   2.892
12328SOL    HW249044   5.050   2.521   3.051
12329SOL     OW49045   5.274   1.905   2.329
12329SOL    HW149046   5.282   1.853   2.244
12329SOL    HW249047   5.185   1.951   2.332
12330SOL     OW49048   4.397   3.161   3.668
12330SOL    HW149049   4.421   3.212   3.586
12330SOL    HW249050   4.471   3.167   3.735
12331SOL     OW49051   4.118   2.957   3.516
12331SOL    HW149052   4.164   2.919   3.436
12331SOL    HW249053   4.139   3.055   3.524
12332SOL     OW49054   3.808   3.243   2.959
12332SOL    HW149055   3.794   3.178   2.884
12332SOL    HW249056   3.730   3.240   3.021
12333SOL     OW49057   4.812   2.451   2.683
12333SOL    HW149058   4.897   2.414   2.645
12333SOL    HW249059   4.791   2.406   2.769
12334SOL     OW49060   5.100   2.215   2.980
12334SOL    HW149061   5.072   2.311   2.971
12334SOL    HW249062   5.085   2.185   3.074
12335SOL     OW49063   5.165   2.368   3.817
12335SOL    HW149064   5.206   2.455   3.846
12335SOL    HW249065   5.228   2.293   3.839
12336SOL     OW49066   4.996   2.693   2.271
12336SOL    HW149067   4.966   2.703   2.366
12336SOL    HW249068   5.094   2.713   2.265
12337SOL     OW49069   5.279   2.801   2.526
12337SOL    HW149070   5.265   2.789   2.428
12337SOL    HW249071   5.206   2.754   2.576
12338SOL     OW49072   5.278   2.148   2.039
12338SOL    HW149073   5.300   2.185   2.130
12338SOL    HW249074   5.218   2.069   2.049
12339SOL     OW49075   4.416   3.323   3.280
12339SOL    HW149076   4.376   3.407   3.243
12339SOL    HW249077   4.366   3.244   3.245
12340SOL     OW49078   3.862   2.150   3.535
12340SOL    HW149079   3.872   2.167   3.437
12340SOL    HW249080   3.765   2.139   3.557
12341SOL     OW49081   3.714   3.498   3.535
12341SOL    HW149082   3.775   3.473   3.610
12341SOL    HW249083   3.624   3.523   3.572
12342SOL     OW49084   3.900   2.222   2.490
12342SOL    HW149085   3.852   2.295   2.539
12342SOL    HW249086   3.934   2.155   2.556
12343SOL     OW49087   5.493   2.079   3.216
12343SOL    HW149088   5.428   2.102   3.288
12343SOL    HW249089   5.453   2.098   3.126
12344SOL     OW49090   4.180   3.690   2.506
12344SOL    HW149091   4.097   3.678   2.453
12344SOL    HW249092   4.258   3.700   2.445
12345SOL     OW49093   4.036   3.173   3.098
12345SOL    HW149094   4.026   3.220   3.186
12345SOL    HW249095   3.963   3.201   3.036
12346SOL     OW49096   4.095   2.697   2.673
12346SOL    HW149097   4.094   2.796   2.690
12346SOL    HW249098   4.188   2.667   2.653
12347SOL     OW49099   3.939   2.168   2.059
12347SOL    HW149100   4.011   2.099   2.069
12347SOL    HW249101   3.957   2.224   1.979
12348SOL     OW49102   3.765   2.417   2.630
12348SOL    HW149103   3.689   2.463   2.677
12348SOL    HW249104   3.843   2.411   2.692
12349SOL     OW49105   4.832   2.591   1.907
12349SOL    HW149106   4.759   2.642   1.861
12349SOL    HW249107   4.882   2.537   1.839
12350SOL     OW49108   5.034   2.035   2.343
12350SOL    HW149109   4.945   2.025   2.386
12350SOL    HW249110   5.052   2.132   2.324
12351SOL     OW49111   5.152   2.330   3.405
12351SOL    HW149112   5.088   2.368   3.472
12351SOL    HW249113   5.102   2.274   3.339
12352SOL     OW49114   3.771   1.947   1.986
12352SOL    HW149115   3.837   1.874   2.002
12352SOL    HW249116   3.807   2.034   2.021
12353SOL     OW49117   4.020   2.906   3.031
12353SOL    HW149118   4.029   2.841   3.106
12353SOL    HW249119   4.034   2.999   3.066
12354SOL     OW49120   5.343   2.910   2.058
12354SOL    HW149121   5.438   2.939   2.068
12354SOL    HW249122   5.322   2.901   1.960
12355SOL     OW49123   4.347   2.540   3.009
12355SOL    HW149124   4.392   2.555   3.097
12355SOL    HW249125   4.258   2.496   3.025
12356SOL     OW49126   4.501   2.834   3.359
12356SOL    HW149127   4.567   2.896   3.316
12356SOL    HW249128   4.492   2.856   3.456
12357SOL     OW49129   4.909   2.941   3.584
12357SOL    HW149130   4.839   2.869   3.582
12357SOL    HW249131   4.985   2.911   3.641
12358SOL     OW49132   4.780   2.109   2.448
12358SOL    HW149133   4.733   2.196   2.461
12358SOL    HW249134   4.761   2.049   2.527
12359SOL     OW49135   4.362   1.946   2.718
12359SOL    HW149136   4.310   1.871   2.677
12359SOL    HW249137   4.443   1.909   2.764
12360SOL     OW49138   4.037   3.609   3.107
12360SOL    HW149139   3.992   3.573   3.025
12360SOL    HW249140   3.974   3.602   3.185
12361SOL     OW49141   4.458   2.742   2.836
12361SOL    HW149142   4.418   2.715   2.748
12361SOL    HW249143   4.415   2.689   2.910
12362SOL     OW49144   3.761   2.848   2.972
12362SOL    HW149145   3.854   2.867   3.003
12362SOL    HW249146   3.765   2.779   2.899
12363SOL     OW49147   3.942   1.890   2.290
12363SOL    HW149148   3.997   1.906   2.372
12363SOL    HW249149   3.845   1.902   2.312
12364SOL     OW49150   4.395   2.481   3.511
12364SOL    HW149151   4.336   2.519   3.440
12364SOL    HW249152   4.491   2.498   3.488
12365SOL     OW49153   3.729   3.021   2.124
12365SOL    HW149154   3.781   2.936   2.127
12365SOL    HW249155   3.780   3.090   2.073
12366SOL     OW49156   5.444   2.093   2.712
12366SOL    HW149157   5.424   2.106   2.809
12366SOL    HW249158   5.543   2.084   2.699
12367SOL     OW49159   4.514   3.068   2.992
12367SOL    HW149160   4.505   2.999   2.920
12367SOL    HW249161   4.530   3.157   2.950
12368SOL     OW49162   4.904   2.467   2.149
12368SOL    HW149163   4.932   2.548   2.201
12368SOL    HW249164   4.869   2.496   2.059
12369SOL     OW49165   3.938   2.712   3.227
12369SOL    HW149166   3.946   2.620   3.267
12369SOL    HW249167   3.911   2.777   3.298
12370SOL     OW49168   4.537   3.417   1.889
12370SOL    HW149169   4.488   3.459   1.966
12370SOL    HW249170   4.634   3.411   1.911
12371SOL     OW49171   4.384   3.591   2.890
12371SOL    HW149172   4.328   3.546   2.821
12371SOL    HW249173   4.349   3.568   2.981
12372SOL     OW49174   3.832   2.693   2.757
12372SOL    HW149175   3.926   2.681   2.725
12372SOL    HW249176   3.776   2.729   2.683
12373SOL     OW49177   3.727   2.781   3.661
12373SOL    HW149178   3.628   2.772   3.651
12373SOL    HW249179   3.756   2.733   3.744
12374SOL     OW49180   4.277   2.260   3.692
12374SOL    HW149181   4.312   2.247   3.599
12374SOL    HW249182   4.248   2.356   3.703
12375SOL     OW49183   5.420   2.768   2.831
12375SOL    HW149184   5.439   2.842   2.766
12375SOL    HW249185   5.331   2.784   2.874
12376SOL     OW49186   5.066   2.124   3.240
12376SOL    HW149187   5.134   2.072   3.292
12376SOL    HW249188   4.990   2.063   3.215
12377SOL     OW49189   3.679   1.945   2.329
12377SOL    HW149190   3.581   1.927   2.336
12377SOL    HW249191   3.694   2.042   2.306
12378SOL     OW49192   4.915   2.008   3.599
12378SOL    HW149193   4.935   1.984   3.694
12378SOL    HW249194   4.859   2.091   3.597
12379SOL     OW49195   4.759   2.354   2.932
12379SOL    HW149196   4.841   2.402   2.963
12379SOL    HW249197   4.756   2.263   2.973
12380SOL     OW49198   4.113   3.299   2.508
12380SOL    HW149199   4.116   3.211   2.556
12380SOL    HW249200   4.018   3.322   2.487
12381SOL     OW49201   4.713   3.443   3.082
12381SOL    HW149202   4.667   3.426   3.170
12381SOL    HW249203   4.809   3.417   3.089
12382SOL     OW49204   3.874   3.420   3.747
12382SOL    HW149205   3.972   3.440   3.740
12382SOL    HW249206   3.861   3.322   3.761
12383SOL     OW49207   3.823   3.131   3.488
12383SOL    HW149208   3.825   3.035   3.460
12383SOL    HW249209   3.739   3.174   3.453
12384SOL     OW49210   3.881   3.501   2.902
12384SOL    HW149211   3.859   3.405   2.920
12384SOL    HW249212   3.906   3.512   2.806
12385SOL     OW49213   4.727   2.003   2.697
12385SOL    HW149214   4.816   2.028   2.735
12385SOL    HW249215   4.676   1.949   2.764
12386SOL     OW49216   5.319   2.309   2.589
12386SOL    HW149217   5.352   2.387   2.642
12386SOL    HW249218   5.359   2.225   2.625
12387SOL     OW49219   4.494   1.902   1.987
12387SOL    HW149220   4.569   1.836   1.992
12387SOL    HW249221   4.527   1.992   2.013
12388SOL     OW49222   4.226   2.327   2.650
12388SOL    HW149223   4.293   2.267   2.607
12388SOL    HW249224   4.255   2.422   2.640
12389SOL     OW49225   4.242   2.871   3.290
12389SOL    HW149226   4.334   2.842   3.315
12389SOL    HW249227   4.246   2.954   3.235
12390SOL     OW49228   5.443   2.976   3.255
12390SOL    HW149229   5.446   3.076   3.256
12390SOL    HW249230   5.491   2.942   3.174
12391SOL     OW49231   3.884   3.197   1.981
12391SOL    HW149232   3.864   3.207   1.883
12391SOL    HW249233   3.982   3.203   1.996
12392SOL     OW49234   4.372   3.516   2.088
12392SOL    HW149235   4.308   3.584   2.051
12392SOL    HW249236   4.322   3.456   2.151
12393SOL     OW49237   4.954   2.973   3.313
12393SOL    HW149238   4.945   2.968   3.412
12393SOL    HW249239   4.865   2.990   3.272
12394SOL     OW49240   4.301   3.552   3.160
12394SOL    HW149241   4.337   3.633   3.206
12394SOL    HW249242   4.203   3.563   3.145
12395SOL     OW49243   3.858   2.418   3.610
12395SOL    HW149244   3.863   2.319   3.594
12395SOL    HW249245   3.900   2.439   3.698
12396SOL     OW49246   3.685   2.817   2.539
12396SOL    HW149247   3.709   2.905   2.500
12396SOL    HW249248   3.586   2.807   2.541
12397SOL     OW49249   4.216   2.587   3.338
12397SOL    HW149250   4.128   2.540   3.338
12397SOL    HW249251   4.203   2.681   3.307
12398SOL     OW49252   5.390   3.002   2.677
12398SOL    HW149253   5.418   3.079   2.619
12398SOL    HW249254   5.338   2.937   2.622
12399SOL     OW49255   4.509   2.437   2.814
12399SOL    HW149256   4.593   2.401   2.855
12399SOL    HW249257   4.447   2.465   2.887
12400SOL     OW49258   4.296   3.105   3.159
12400SOL    HW149259   4.211   3.137   3.116
12400SOL    HW249260   4.366   3.093   3.089
12401SOL     OW49261   3.871   2.553   3.007
12401SOL    HW149262   3.885   2.626   3.074
12401SOL    HW249263   3.866   2.593   2.915
12402SOL     OW49264   3.975   3.303   3.329
12402SOL    HW149265   3.933   3.393   3.325
12402SOL    HW249266   3.924   3.245   3.393
12403SOL     OW49267   4.367   2.182   2.296
12403SOL    HW149268   4.268   2.193   2.288
12403SOL    HW249269   4.392   2.168   2.392
12404SOL     OW49270   5.314   1.875   2.598
12404SOL    HW149271   5.295   1.892   2.502
12404SOL    HW249272   5.362   1.954   2.637
12405SOL     OW49273   4.870   2.591   3.273
12405SOL    HW149274   4.969   2.590   3.257
12405SOL    HW249275   4.825   2.648   3.204
12406SOL     OW49276   4.366   2.573   2.623
12406SOL    HW149277   4.423   2.521   2.688
12406SOL    HW249278   4.387   2.544   2.530
12407SOL     OW49279   5.037   2.308   2.585
12407SOL    HW149280   5.021   2.304   2.486
12407SOL    HW249281   5.135   2.314   2.603
12408SOL     OW49282   4.741   3.390   4.477
12408SOL    HW149283   4.840   3.385   4.472
12408SOL    HW249284   4.701   3.366   4.389
12409SOL     OW49285   5.280   3.084   4.252
12409SOL    HW149286   5.283   3.161   4.316
12409SOL    HW249287   5.372   3.048   4.239
12410SOL     OW49288   5.315   2.506   5.069
12410SOL    HW149289   5.256   2.442   5.119
12410SOL    HW249290   5.361   2.567   5.133
12411SOL     OW49291   4.067   2.087   3.704
12411SOL    HW149292   3.999   2.115   3.637
12411SOL    HW249293   4.144   2.151   3.703
12412SOL     OW49294   5.023   3.390   4.479
12412SOL    HW149295   5.040   3.484   4.448
12412SOL    HW249296   5.103   3.333   4.459
12413SOL     OW49297   4.898   1.885   4.996
12413SOL    HW149298   4.820   1.834   5.032
12413SOL    HW249299   4.947   1.827   4.931
12414SOL     OW49300   4.656   2.736   5.431
12414SOL    HW149301   4.624   2.731   5.336
12414SOL    HW249302   4.579   2.754   5.492
12415SOL     OW49303   4.213   3.301   4.073
12415SOL    HW149304   4.168   3.348   4.149
12415SOL    HW249305   4.289   3.246   4.107
12416SOL     OW49306   4.205   1.850   3.747
12416SOL    HW149307   4.292   1.857   3.698
12416SOL    HW249308   4.160   1.939   3.748
12417SOL     OW49309   5.289   2.931   5.248
12417SOL    HW149310   5.192   2.934   5.224
12417SOL    HW249311   5.342   2.981   5.179
12418SOL     OW49312   5.126   2.904   4.904
12418SOL    HW149313   5.086   2.914   4.996
12418SOL    HW249314   5.166   2.992   4.877
12419SOL     OW49315   4.753   3.196   5.160
12419SOL    HW149316   4.728   3.283   5.118
12419SOL    HW249317   4.716   3.121   5.106
12420SOL     OW49318   4.152   3.108   4.412
12420SOL    HW149319   4.099   3.053   4.476
12420SOL    HW249320   4.250   3.094   4.430
12421SOL     OW49321   4.963   2.392   5.416
12421SOL    HW149322   5.055   2.377   5.451
12421SOL    HW249323   4.910   2.308   5.424
12422SOL     OW49324   4.160   3.204   3.816
12422SOL    HW149325   4.243   3.195   3.761
12422SOL    HW249326   4.181   3.252   3.901
12423SOL     OW49327   4.206   2.216   4.752
12423SOL    HW149328   4.261   2.290   4.790
12423SOL    HW249329   4.264   2.137   4.733
12424SOL     OW49330   4.048   2.614   4.252
12424SOL    HW149331   4.063   2.639   4.348
12424SOL    HW249332   3.951   2.592   4.238
12425SOL     OW49333   5.536   3.452   4.027
12425SOL    HW149334   5.613   3.388   4.031
12425SOL    HW249335   5.567   3.543   4.056
12426SOL     OW49336   5.354   2.159   4.801
12426SOL    HW149337   5.395   2.248   4.823
12426SOL    HW249338   5.256   2.162   4.819
12427SOL     OW49339   3.869   2.876   5.294
12427SOL    HW149340   3.959   2.911   5.320
12427SOL    HW249341   3.825   2.835   5.374
12428SOL     OW49342   4.208   2.528   3.708
12428SOL    HW149343   4.178   2.623   3.720
12428SOL    HW249344   4.280   2.524   3.640
12429SOL     OW49345   4.658   2.467   5.251
12429SOL    HW149346   4.701   2.393   5.303
12429SOL    HW249347   4.729   2.523   5.208
12430SOL     OW49348   5.280   3.280   4.445
12430SOL    HW149349   5.322   3.286   4.536
12430SOL    HW249350   5.322   3.347   4.385
12431SOL     OW49351   3.999   3.073   4.184
12431SOL    HW149352   4.059   3.085   4.263
12431SOL    HW249353   4.049   3.026   4.111
12432SOL     OW49354   4.974   2.166   3.861
12432SOL    HW149355   5.023   2.084   3.892
12432SOL    HW249356   5.038   2.243   3.856
12433SOL     OW49357   4.055   2.383   4.967
12433SOL    HW149358   4.043   2.283   4.963
12433SOL    HW249359   3.982   2.427   4.916
12434SOL     OW49360   5.087   2.631   4.976
12434SOL    HW149361   5.103   2.726   4.948
12434SOL    HW249362   5.173   2.590   5.006
12435SOL     OW49363   4.037   2.316   4.084
12435SOL    HW149364   3.990   2.312   4.172
12435SOL    HW249365   4.128   2.277   4.093
12436SOL     OW49366   5.459   2.404   4.859
12436SOL    HW149367   5.553   2.439   4.860
12436SOL    HW249368   5.408   2.440   4.937
12437SOL     OW49369   5.013   2.796   3.868
12437SOL    HW149370   5.086   2.756   3.923
12437SOL    HW249371   4.953   2.724   3.835
12438SOL     OW49372   4.785   2.178   5.439
12438SOL    HW149373   4.811   2.163   5.534
12438SOL    HW249374   4.693   2.141   5.423
12439SOL     OW49375   5.441   2.500   4.060
12439SOL    HW149376   5.400   2.409   4.072
12439SOL    HW249377   5.507   2.517   4.133
12440SOL     OW49378   4.502   1.909   5.418
12440SOL    HW149379   4.511   1.812   5.396
12440SOL    HW249380   4.495   1.920   5.517
12441SOL     OW49381   5.363   2.499   4.620
12441SOL    HW149382   5.337   2.594   4.634
12441SOL    HW249383   5.394   2.459   4.707
12442SOL     OW49384   4.806   3.163   5.433
12442SOL    HW149385   4.850   3.073   5.432
12442SOL    HW249386   4.770   3.183   5.342
12443SOL     OW49387   4.436   2.977   5.410
12443SOL    HW149388   4.381   3.060   5.424
12443SOL    HW249389   4.435   2.922   5.493
12444SOL     OW49390   5.090   1.830   4.566
12444SOL    HW149391   5.045   1.918   4.582
12444SOL    HW249392   5.174   1.844   4.513
12445SOL     OW49393   5.447   2.102   5.499
12445SOL    HW149394   5.381   2.133   5.567
12445SOL    HW249395   5.506   2.032   5.539
12446SOL     OW49396   3.774   2.569   4.283
12446SOL    HW149397   3.769   2.501   4.356
12446SOL    HW249398   3.743   2.658   4.318
12447SOL     OW49399   4.035   2.102   4.941
12447SOL    HW149400   4.023   2.003   4.942
12447SOL    HW249401   4.093   2.128   4.863
12448SOL     OW49402   4.718   2.672   4.648
12448SOL    HW149403   4.634   2.619   4.654
12448SOL    HW249404   4.790   2.617   4.607
12449SOL     OW49405   3.869   3.310   4.126
12449SOL    HW149406   3.911   3.221   4.140
12449SOL    HW249407   3.926   3.364   4.064
12450SOL     OW49408   5.190   3.193   4.897
12450SOL    HW149409   5.135   3.241   4.829
12450SOL    HW249410   5.148   3.202   4.987
12451SOL     OW49411   3.843   3.435   4.369
12451SOL    HW149412   3.747   3.454   4.389
12451SOL    HW249413   3.850   3.390   4.280
12452SOL     OW49414   4.125   2.787   3.734
12452SOL    HW149415   4.121   2.847   3.654
12452SOL    HW249416   4.126   2.843   3.817
12453SOL     OW49417   4.664   3.000   4.986
12453SOL    HW149418   4.683   2.905   4.960
12453SOL    HW249419   4.588   3.035   4.930
12454SOL     OW49420   3.799   2.665   3.896
12454SOL    HW149421   3.872   2.598   3.883
12454SOL    HW249422   3.727   2.625   3.953
12455SOL     OW49423   5.274   2.718   4.018
12455SOL    HW149424   5.329   2.637   4.040
12455SOL    HW249425   5.326   2.779   3.958
12456SOL     OW49426   4.419   2.738   3.864
12456SOL    HW149427   4.479   2.661   3.845
12456SOL    HW249428   4.341   2.707   3.919
12457SOL     OW49429   3.997   2.530   5.191
12457SOL    HW149430   4.016   2.460   5.123
12457SOL    HW249431   3.951   2.489   5.270
12458SOL     OW49432   3.851   2.159   5.142
12458SOL    HW149433   3.921   2.139   5.073
12458SOL    HW249434   3.760   2.140   5.104
12459SOL     OW49435   4.689   2.742   4.911
12459SOL    HW149436   4.707   2.724   4.814
12459SOL    HW249437   4.617   2.681   4.943
12460SOL     OW49438   5.371   2.247   4.153
12460SOL    HW149439   5.469   2.226   4.155
12460SOL    HW249440   5.341   2.271   4.245
12461SOL     OW49441   4.524   2.260   3.817
12461SOL    HW149442   4.436   2.259   3.771
12461SOL    HW249443   4.512   2.230   3.912
12462SOL     OW49444   4.610   3.147   3.848
12462SOL    HW149445   4.670   3.160   3.927
12462SOL    HW249446   4.664   3.153   3.764
12463SOL     OW49447   5.378   3.451   4.257
12463SOL    HW149448   5.329   3.535   4.232
12463SOL    HW249449   5.432   3.420   4.179
12464SOL     OW49450   4.523   3.477   5.337
12464SOL    HW149451   4.475   3.434   5.261
12464SOL    HW249452   4.522   3.416   5.416
12465SOL     OW49453   5.018   2.706   4.434
12465SOL    HW149454   4.978   2.625   4.477
12465SOL    HW249455   4.950   2.780   4.433
12466SOL     OW49456   4.007   2.949   4.584
12466SOL    HW149457   3.912   2.982   4.585
12466SOL    HW249458   4.038   2.935   4.678
12467SOL     OW49459   5.020   3.240   5.118
12467SOL    HW149460   5.042   3.336   5.130
12467SOL    HW249461   4.923   3.225   5.132
12468SOL     OW49462   3.735   2.164   4.135
12468SOL    HW149463   3.779   2.148   4.047
12468SOL    HW249464   3.803   2.196   4.201
12469SOL     OW49465   5.380   3.619   3.862
12469SOL    HW149466   5.455   3.682   3.842
12469SOL    HW249467   5.417   3.533   3.897
12470SOL     OW49468   4.501   2.588   5.050
12470SOL    HW149469   4.473   2.669   5.100
12470SOL    HW249470   4.555   2.529   5.110
12471SOL     OW49471   3.743   3.692   5.088
12471SOL    HW149472   3.702   3.783   5.087
12471SOL    HW249473   3.737   3.654   5.181
12472SOL     OW49474   4.010   2.375   4.619
12472SOL    HW149475   4.059   2.460   4.598
12472SOL    HW249476   4.072   2.312   4.666
12473SOL     OW49477   4.948   3.542   4.918
12473SOL    HW149478   5.017   3.539   4.990
12473SOL    HW249479   4.969   3.474   4.848
12474SOL     OW49480   3.747   3.032   4.648
12474SOL    HW149481   3.659   3.027   4.600
12474SOL    HW249482   3.746   2.967   4.724
12475SOL     OW49483   3.730   2.997   4.205
12475SOL    HW149484   3.823   3.031   4.222
12475SOL    HW249485   3.719   2.975   4.108
12476SOL     OW49486   5.318   2.133   5.256
12476SOL    HW149487   5.260   2.215   5.250
12476SOL    HW249488   5.361   2.129   5.346
12477SOL     OW49489   4.992   2.084   4.623
12477SOL    HW149490   5.014   2.156   4.557
12477SOL    HW249491   5.028   2.110   4.712
12478SOL     OW49492   5.126   1.925   3.912
12478SOL    HW149493   5.200   1.862   3.886
12478SOL    HW249494   5.038   1.882   3.891
12479SOL     OW49495   5.275   1.858   5.249
12479SOL    HW149496   5.270   1.824   5.155
12479SOL    HW249497   5.280   1.958   5.249
12480SOL     OW49498   4.973   2.431   4.826
12480SOL    HW149499   4.974   2.468   4.733
12480SOL    HW249500   5.007   2.499   4.890
12481SOL     OW49501   5.304   1.887   4.137
12481SOL    HW149502   5.346   1.823   4.073
12481SOL    HW249503   5.218   1.921   4.098
12482SOL     OW49504   4.257   3.221   5.452
12482SOL    HW149505   4.212   3.291   5.397
12482SOL    HW249506   4.345   3.255   5.485
12483SOL     OW49507   4.120   2.972   5.363
12483SOL    HW149508   4.171   2.953   5.279
12483SOL    HW249509   4.144   3.063   5.396
12484SOL     OW49510   3.798   3.242   4.815
12484SOL    HW149511   3.781   3.174   4.744
12484SOL    HW249512   3.721   3.244   4.879
12485SOL     OW49513   4.897   2.477   4.553
12485SOL    HW149514   4.963   2.416   4.509
12485SOL    HW249515   4.825   2.423   4.596
12486SOL     OW49516   5.452   2.495   5.422
12486SOL    HW149517   5.430   2.567   5.355
12486SOL    HW249518   5.550   2.478   5.421
12487SOL     OW49519   5.087   2.184   4.863
12487SOL    HW149520   5.048   2.276   4.856
12487SOL    HW249521   5.067   2.146   4.953
12488SOL     OW49522   5.220   2.353   5.495
12488SOL    HW149523   5.304   2.401   5.469
12488SOL    HW249524   5.239   2.291   5.571
12489SOL     OW49525   5.260   2.762   4.321
12489SOL    HW149526   5.253   2.763   4.221
12489SOL    HW249527   5.173   2.736   4.361
12490SOL     OW49528   5.434   2.696   5.232
12490SOL    HW149529   5.373   2.775   5.232
12490SOL    HW249530   5.529   2.727   5.231
12491SOL     OW49531   5.300   2.148   3.903
12491SOL    HW149532   5.327   2.175   3.995
12491SOL    HW249533   5.246   2.064   3.907
12492SOL     OW49534   4.386   3.387   5.124
12492SOL    HW149535   4.316   3.455   5.106
12492SOL    HW249536   4.359   3.299   5.084
12493SOL     OW49537   3.819   2.148   5.410
12493SOL    HW149538   3.830   2.150   5.311
12493SOL    HW249539   3.726   2.121   5.433
12494SOL     OW49540   3.742   3.564   5.337
12494SOL    HW149541   3.827   3.570   5.390
12494SOL    HW249542   3.664   3.571   5.399
12495SOL     OW49543   3.912   2.251   4.326
12495SOL    HW149544   3.850   2.307   4.382
12495SOL    HW249545   3.977   2.204   4.386
12496SOL     OW49546   5.075   3.498   5.179
12496SOL    HW149547   4.993   3.534   5.223
12496SOL    HW249548   5.154   3.556   5.200
12497SOL     OW49549   3.983   2.453   3.855
12497SOL    HW149550   4.067   2.485   3.810
12497SOL    HW249551   4.006   2.415   3.944
12498SOL     OW49552   5.465   2.057   5.039
12498SOL    HW149553   5.405   2.088   5.113
12498SOL    HW249554   5.422   2.079   4.951
12499SOL     OW49555   3.998   3.662   4.375
12499SOL    HW149556   3.934   3.585   4.378
12499SOL    HW249557   4.092   3.628   4.384
12500SOL     OW49558   4.032   3.154   4.933
12500SOL    HW149559   4.025   3.178   5.030
12500SOL    HW249560   3.953   3.191   4.884
12501SOL     OW49561   4.852   3.431   5.511
12501SOL    HW149562   4.831   3.335   5.488
12501SOL    HW249563   4.853   3.485   5.427
12502SOL     OW49564   4.403   3.144   4.201
12502SOL    HW149565   4.420   3.076   4.130
12502SOL    HW249566   4.408   3.101   4.291
12503SOL     OW49567   4.079   2.687   4.521
12503SOL    HW149568   4.058   2.785   4.530
12503SOL    HW249569   4.178   2.673   4.528
12504SOL     OW49570   3.868   2.154   3.885
12504SOL    HW149571   3.948   2.121   3.834
12504SOL    HW249572   3.877   2.252   3.901
12505SOL     OW49573   3.762   2.403   4.498
12505SOL    HW149574   3.684   2.443   4.546
12505SOL    HW249575   3.839   2.394   4.561
12506SOL     OW49576   4.162   2.969   3.965
12506SOL    HW149577   4.260   2.969   3.983
12506SOL    HW249578   4.138   3.049   3.911
12507SOL     OW49579   4.855   2.603   3.750
12507SOL    HW149580   4.802   2.663   3.689
12507SOL    HW249581   4.905   2.536   3.695
12508SOL     OW49582   4.588   2.533   3.814
12508SOL    HW149583   4.687   2.548   3.806
12508SOL    HW249584   4.568   2.435   3.809
12509SOL     OW49585   5.131   2.337   5.188
12509SOL    HW149586   5.073   2.381   5.256
12509SOL    HW249587   5.084   2.256   5.152
12510SOL     OW49588   3.740   1.929   3.778
12510SOL    HW149589   3.812   1.869   3.746
12510SOL    HW249590   3.780   2.006   3.828
12511SOL     OW49591   4.096   2.905   4.841
12511SOL    HW149592   4.075   2.837   4.912
12511SOL    HW249593   4.075   2.996   4.875
12512SOL     OW49594   4.317   2.450   4.885
12512SOL    HW149595   4.374   2.500   4.950
12512SOL    HW249596   4.225   2.440   4.923
12513SOL     OW49597   4.525   2.848   5.191
12513SOL    HW149598   4.587   2.903   5.136
12513SOL    HW249599   4.501   2.897   5.274
12514SOL     OW49600   4.877   2.894   5.371
12514SOL    HW149601   4.794   2.843   5.394
12514SOL    HW249602   4.957   2.842   5.399
12515SOL     OW49603   4.862   3.615   5.303
12515SOL    HW149604   4.777   3.642   5.257
12515SOL    HW249605   4.896   3.692   5.357
12516SOL     OW49606   4.367   1.998   4.724
12516SOL    HW149607   4.350   1.904   4.754
12516SOL    HW249608   4.463   2.006   4.696
12517SOL     OW49609   3.973   3.638   4.947
12517SOL    HW149610   3.944   3.587   4.866
12517SOL    HW249611   3.894   3.656   5.005
12518SOL     OW49612   4.645   3.165   4.606
12518SOL    HW149613   4.671   3.250   4.561
12518SOL    HW249614   4.723   3.128   4.657
12519SOL     OW49615   4.321   2.893   4.674
12519SOL    HW149616   4.334   2.804   4.631
12519SOL    HW249617   4.243   2.890   4.736
12520SOL     OW49618   3.762   2.844   4.844
12520SOL    HW149619   3.823   2.818   4.918
12520SOL    HW249620   3.773   2.781   4.767
12521SOL     OW49621   4.399   2.500   5.375
12521SOL    HW149622   4.347   2.557   5.311
12521SOL    HW249623   4.492   2.486   5.340
12522SOL     OW49624   3.771   2.952   3.931
12522SOL    HW149625   3.804   2.859   3.913
12522SOL    HW249626   3.817   3.016   3.870
12523SOL     OW49627   5.445   2.089   4.551
12523SOL    HW149628   5.411   2.102   4.644
12523SOL    HW249629   5.534   2.045   4.554
12524SOL     OW49630   4.475   3.077   4.802
12524SOL    HW149631   4.421   3.005   4.759
12524SOL    HW249632   4.531   3.123   4.733
12525SOL     OW49633   5.210   3.293   5.371
12525SOL    HW149634   5.171   3.210   5.412
12525SOL    HW249635   5.153   3.324   5.296
12526SOL     OW49636   3.921   2.750   5.050
12526SOL    HW149637   3.954   2.667   5.096
12526SOL    HW249638   3.896   2.819   5.118
12527SOL     OW49639   4.421   3.053   4.468
12527SOL    HW149640   4.505   3.096   4.501
12527SOL    HW249641   4.387   2.989   4.537
12528SOL     OW49642   4.626   3.305   4.246
12528SOL    HW149643   4.687   3.250   4.189
12528SOL    HW249644   4.532   3.273   4.235
12529SOL     OW49645   3.820   2.688   4.624
12529SOL    HW149646   3.911   2.676   4.585
12529SOL    HW249647   3.757   2.721   4.553
12530SOL     OW49648   3.733   2.765   5.498
12530SOL    HW149649   3.633   2.770   5.494
12530SOL    HW249650   3.761   2.712   5.578
12531SOL     OW49651   4.615   3.662   5.159
12531SOL    HW149652   4.584   3.596   5.228
12531SOL    HW249653   4.541   3.727   5.140
12532SOL     OW49654   4.850   3.084   4.783
12532SOL    HW149655   4.793   3.072   4.864
12532SOL    HW249656   4.915   3.009   4.776
12533SOL     OW49657   4.215   2.240   5.489
12533SOL    HW149658   4.296   2.223   5.433
12533SOL    HW249659   4.214   2.336   5.518
12534SOL     OW49660   4.208   2.700   4.044
12534SOL    HW149661   4.169   2.790   4.024
12534SOL    HW249662   4.154   2.656   4.116
12535SOL     OW49663   5.310   2.767   4.725
12535SOL    HW149664   5.318   2.831   4.648
12535SOL    HW249665   5.237   2.797   4.786
12536SOL     OW49666   5.021   2.090   5.120
12536SOL    HW149667   5.032   2.061   5.215
12536SOL    HW249668   4.972   2.019   5.069
12537SOL     OW49669   3.637   1.966   4.308
12537SOL    HW149670   3.546   1.945   4.272
12537SOL    HW249671   3.682   2.032   4.248
12538SOL     OW49672   4.996   2.003   5.390
12538SOL    HW149673   5.044   1.989   5.476
12538SOL    HW249674   4.920   2.066   5.404
12539SOL     OW49675   4.129   3.436   5.325
12539SOL    HW149676   4.073   3.491   5.389
12539SOL    HW249677   4.161   3.495   5.251
12540SOL     OW49678   5.491   3.287   5.397
12540SOL    HW149679   5.496   3.380   5.434
12540SOL    HW249680   5.396   3.265   5.374
12541SOL     OW49681   4.726   2.331   4.715
12541SOL    HW149682   4.794   2.350   4.786
12541SOL    HW249683   4.712   2.232   4.707
12542SOL     OW49684   4.113   3.371   4.331
12542SOL    HW149685   4.138   3.279   4.363
12542SOL    HW249686   4.018   3.390   4.357
12543SOL     OW49687   4.723   3.431   5.032
12543SOL    HW149688   4.666   3.505   5.068
12543SOL    HW249689   4.801   3.471   4.983
12544SOL     OW49690   3.973   3.591   5.499
12544SOL    HW149691   4.000   3.687   5.504
12544SOL    HW249692   3.966   3.554   5.591
12545SOL     OW49693   3.806   3.143   5.353
12545SOL    HW149694   3.800   3.049   5.320
12545SOL    HW249695   3.734   3.198   5.310
12546SOL     OW49696   3.854   3.497   4.734
12546SOL    HW149697   3.840   3.403   4.765
12546SOL    HW249698   3.868   3.498   4.635
12547SOL     OW49699   4.720   2.057   4.690
12547SOL    HW149700   4.815   2.054   4.661
12547SOL    HW249701   4.690   1.965   4.717
12548SOL     OW49702   4.753   3.108   4.099
12548SOL    HW149703   4.845   3.103   4.138
12548SOL    HW249704   4.711   3.017   4.101
12549SOL     OW49705   5.330   2.306   4.425
12549SOL    HW149706   5.343   2.385   4.485
12549SOL    HW249707   5.373   2.225   4.466
12550SOL     OW49708   4.440   2.980   3.984
12550SOL    HW149709   4.499   3.041   3.931
12550SOL    HW249710   4.443   2.888   3.945
12551SOL     OW49711   4.264   2.919   5.135
12551SOL    HW149712   4.358   2.890   5.152
12551SOL    HW249713   4.265   3.008   5.088
12552SOL     OW49714   5.402   3.047   5.029
12552SOL    HW149715   5.346   3.110   4.974
12552SOL    HW249716   5.458   2.991   4.968
12553SOL     OW49717   3.896   3.141   3.757
12553SOL    HW149718   3.873   3.130   3.661
12553SOL    HW249719   3.994   3.156   3.767
12554SOL     OW49720   5.031   2.967   5.154
12554SOL    HW149721   4.967   2.935   5.223
12554SOL    HW249722   5.028   3.067   5.148
12555SOL     OW49723   4.201   3.592   5.103
12555SOL    HW149724   4.252   3.678   5.107
12555SOL    HW249725   4.120   3.603   5.045
12556SOL     OW49726   3.894   2.415   5.423
12556SOL    HW149727   3.874   2.317   5.423
12556SOL    HW249728   3.972   2.433   5.483
12557SOL     OW49729   5.386   3.275   4.696
12557SOL    HW149730   5.333   3.255   4.778
12557SOL    HW249731   5.483   3.266   4.716
12558SOL     OW49732   3.681   2.798   4.396
12558SOL    HW149733   3.709   2.872   4.336
12558SOL    HW249734   3.581   2.792   4.399
12559SOL     OW49735   4.241   2.653   5.215
12559SOL    HW149736   4.151   2.610   5.212
12559SOL    HW249737   4.234   2.748   5.185
12560SOL     OW49738   5.330   2.953   4.522
12560SOL    HW149739   5.305   3.049   4.508
12560SOL    HW249740   5.304   2.900   4.442
12561SOL     OW49741   4.508   2.498   4.690
12561SOL    HW149742   4.580   2.429   4.697
12561SOL    HW249743   4.438   2.480   4.760
12562SOL     OW49744   4.300   3.157   4.996
12562SOL    HW149745   4.208   3.167   4.959
12562SOL    HW249746   4.364   3.137   4.922
12563SOL     OW49747   3.855   2.542   4.861
12563SOL    HW149748   3.868   2.615   4.928
12563SOL    HW249749   3.844   2.582   4.770
12564SOL     OW49750   4.013   3.226   5.192
12564SOL    HW149751   4.059   3.305   5.233
12564SOL    HW249752   3.941   3.194   5.253
12565SOL     OW49753   5.331   3.521   5.469
12565SOL    HW149754   5.282   3.437   5.444
12565SOL    HW249755   5.316   3.591   5.399
12566SOL     OW49756   5.012   3.071   4.185
12566SOL    HW149757   5.102   3.071   4.227
12566SOL    HW249758   5.021   3.063   4.085
12567SOL     OW49759   5.310   1.880   4.413
12567SOL    HW149760   5.303   1.892   4.314
12567SOL    HW249761   5.360   1.957   4.452
12568SOL     OW49762   4.837   2.619   5.112
12568SOL    HW149763   4.935   2.615   5.092
12568SOL    HW249764   4.791   2.673   5.041
12569SOL     OW49765   4.353   2.660   4.532
12569SOL    HW149766   4.407   2.598   4.588
12569SOL    HW249767   4.388   2.661   4.438
12570SOL     OW49768   4.996   3.323   4.747
12570SOL    HW149769   4.933   3.246   4.757
12570SOL    HW249770   5.002   3.349   4.651
12571SOL     OW49771   5.061   2.288   4.441
12571SOL    HW149772   5.029   2.271   4.348
12571SOL    HW249773   5.160   2.298   4.441
12572SOL     OW49774   4.748   3.308   6.299
12572SOL    HW149775   4.846   3.331   6.304
12572SOL    HW249776   4.716   3.317   6.205
12573SOL     OW49777   5.223   3.197   6.096
12573SOL    HW149778   5.239   3.228   6.190
12573SOL    HW249779   5.296   3.231   6.037
12574SOL     OW49780   5.290   2.433   6.938
12574SOL    HW149781   5.200   2.414   6.977
12574SOL    HW249782   5.361   2.415   7.006
12575SOL     OW49783   4.032   2.055   5.547
12575SOL    HW149784   3.950   2.077   5.494
12575SOL    HW249785   4.105   2.119   5.523
12576SOL     OW49786   5.009   3.397   6.332
12576SOL    HW149787   5.013   3.486   6.285
12576SOL    HW249788   5.099   3.354   6.330
12577SOL     OW49789   4.674   2.705   7.283
12577SOL    HW149790   4.679   2.647   7.201
12577SOL    HW249791   4.581   2.706   7.318
12578SOL     OW49792   4.246   3.316   5.937
12578SOL    HW149793   4.196   3.342   6.020
12578SOL    HW249794   4.319   3.252   5.961
12579SOL     OW49795   4.219   1.901   5.687
12579SOL    HW149796   4.311   1.939   5.686
12579SOL    HW249797   4.158   1.959   5.633
12580SOL     OW49798   5.245   2.921   7.106
12580SOL    HW149799   5.149   2.936   7.081
12580SOL    HW249800   5.304   2.952   7.031
12581SOL     OW49801   5.046   2.943   6.732
12581SOL    HW149802   5.022   2.925   6.827
12581SOL    HW249803   5.080   3.037   6.723
12582SOL     OW49804   4.659   3.222   7.010
12582SOL    HW149805   4.581   3.282   6.991
12582SOL    HW249806   4.651   3.139   6.956
12583SOL     OW49807   4.160   3.065   6.212
12583SOL    HW149808   4.106   3.013   6.278
12583SOL    HW249809   4.257   3.039   6.220
12584SOL     OW49810   4.425   2.485   6.113
12584SOL    HW149811   4.451   2.559   6.050
12584SOL    HW249812   4.382   2.411   6.061
12585SOL     OW49813   5.011   2.378   7.337
12585SOL    HW149814   5.111   2.383   7.341
12585SOL    HW249815   4.979   2.303   7.395
12586SOL     OW49816   4.114   3.230   5.699
12586SOL    HW149817   4.170   3.243   5.617
12586SOL    HW249818   4.160   3.273   5.777
12587SOL     OW49819   4.188   2.177   6.540
12587SOL    HW149820   4.242   2.260   6.533
12587SOL    HW249821   4.241   2.099   6.507
12588SOL     OW49822   4.021   2.578   6.027
12588SOL    HW149823   4.059   2.626   6.106
12588SOL    HW249824   3.924   2.562   6.041
12589SOL     OW49825   4.495   3.536   6.160
12589SOL    HW149826   4.549   3.462   6.119
12589SOL    HW249827   4.497   3.616   6.099
12590SOL     OW49828   5.417   3.309   5.942
12590SOL    HW149829   5.514   3.283   5.939
12590SOL    HW249830   5.399   3.376   5.870
12591SOL     OW49831   4.739   2.239   5.889
12591SOL    HW149832   4.795   2.321   5.889
12591SOL    HW249833   4.745   2.193   5.978
12592SOL     OW49834   3.846   2.834   7.155
12592SOL    HW149835   3.946   2.844   7.158
12592SOL    HW249836   3.812   2.814   7.246
12593SOL     OW49837   4.189   2.518   5.551
12593SOL    HW149838   4.164   2.615   5.560
12593SOL    HW249839   4.271   2.509   5.494
12594SOL     OW49840   4.325   3.429   6.342
12594SOL    HW149841   4.388   3.478   6.282
12594SOL    HW249842   4.248   3.394   6.289
12595SOL     OW49843   4.705   2.528   7.078
12595SOL    HW149844   4.729   2.436   7.107
12595SOL    HW249845   4.783   2.569   7.031
12596SOL     OW49846   5.279   3.331   6.330
12596SOL    HW149847   5.285   3.341   6.429
12596SOL    HW249848   5.362   3.367   6.287
12597SOL     OW49849   3.990   3.104   5.996
12597SOL    HW149850   4.052   3.091   6.074
12597SOL    HW249851   4.021   3.047   5.920
12598SOL     OW49852   4.880   2.125   5.681
12598SOL    HW149853   4.950   2.058   5.709
12598SOL    HW249854   4.830   2.156   5.761
12599SOL     OW49855   4.087   2.399   6.782
12599SOL    HW149856   4.074   2.300   6.788
12599SOL    HW249857   3.999   2.443   6.761
12600SOL     OW49858   5.176   2.689   6.896
12600SOL    HW149859   5.229   2.774   6.904
12600SOL    HW249860   5.231   2.612   6.927
12601SOL     OW49861   4.044   2.172   5.997
12601SOL    HW149862   3.986   2.207   6.071
12601SOL    HW249863   3.996   2.181   5.910
12602SOL     OW49864   5.277   3.588   6.945
12602SOL    HW149865   5.232   3.595   6.856
12602SOL    HW249866   5.375   3.574   6.932
12603SOL     OW49867   5.374   2.505   6.684
12603SOL    HW149868   5.436   2.435   6.649
12603SOL    HW249869   5.333   2.474   6.769
12604SOL     OW49870   4.612   2.331   6.246
12604SOL    HW149871   4.677   2.379   6.304
12604SOL    HW249872   4.554   2.398   6.199
12605SOL     OW49873   4.930   2.800   5.688
12605SOL    HW149874   4.957   2.763   5.777
12605SOL    HW249875   4.885   2.728   5.635
12606SOL     OW49876   5.475   2.532   5.882
12606SOL    HW149877   5.426   2.450   5.854
12606SOL    HW249878   5.489   2.530   5.981
12607SOL     OW49879   4.697   3.624   5.676
12607SOL    HW149880   4.729   3.581   5.592
12607SOL    HW249881   4.714   3.563   5.753
12608SOL     OW49882   5.232   2.463   6.396
12608SOL    HW149883   5.235   2.547   6.342
12608SOL    HW249884   5.246   2.484   6.492
12609SOL     OW49885   4.775   3.192   7.265
12609SOL    HW149886   4.813   3.099   7.264
12609SOL    HW249887   4.726   3.209   7.180
12610SOL     OW49888   4.324   2.999   7.254
12610SOL    HW149889   4.305   3.097   7.256
12610SOL    HW249890   4.348   2.968   7.346
12611SOL     OW49891   5.045   1.883   6.328
12611SOL    HW149892   4.975   1.948   6.361
12611SOL    HW249893   5.130   1.932   6.311
12612SOL     OW49894   3.759   2.560   6.113
12612SOL    HW149895   3.743   2.492   6.185
12612SOL    HW249896   3.742   2.651   6.150
12613SOL     OW49897   3.994   2.080   6.356
12613SOL    HW149898   4.050   2.132   6.421
12613SOL    HW249899   4.031   1.988   6.346
12614SOL     OW49900   4.052   2.122   6.776
12614SOL    HW149901   4.031   2.025   6.787
12614SOL    HW249902   4.102   2.135   6.690
12615SOL     OW49903   4.709   2.692   6.508
12615SOL    HW149904   4.622   2.709   6.461
12615SOL    HW249905   4.751   2.610   6.470
12616SOL     OW49906   3.880   3.358   5.931
12616SOL    HW149907   3.920   3.267   5.939
12616SOL    HW249908   3.936   3.413   5.868
12617SOL     OW49909   5.100   3.214   6.764
12617SOL    HW149910   5.071   3.280   6.695
12617SOL    HW249911   5.038   3.219   6.843
12618SOL     OW49912   3.858   3.414   6.200
12618SOL    HW149913   3.763   3.434   6.225
12618SOL    HW249914   3.864   3.398   6.102
12619SOL     OW49915   5.372   3.230   6.813
12619SOL    HW149916   5.401   3.254   6.905
12619SOL    HW249917   5.272   3.220   6.811
12620SOL     OW49918   4.163   2.793   5.570
12620SOL    HW149919   4.141   2.847   5.489
12620SOL    HW249920   4.143   2.847   5.652
12621SOL     OW49921   4.623   2.995   6.857
12621SOL    HW149922   4.675   2.912   6.839
12621SOL    HW249923   4.572   3.020   6.774
12622SOL     OW49924   3.789   2.636   5.734
12622SOL    HW149925   3.867   2.574   5.738
12622SOL    HW249926   3.713   2.599   5.786
12623SOL     OW49927   5.290   2.732   5.953
12623SOL    HW149928   5.352   2.658   5.926
12623SOL    HW249929   5.317   2.817   5.907
12624SOL     OW49930   4.437   3.622   6.582
12624SOL    HW149931   4.499   3.552   6.545
12624SOL    HW249932   4.358   3.578   6.625
12625SOL     OW49933   4.437   2.760   5.604
12625SOL    HW149934   4.468   2.672   5.638
12625SOL    HW249935   4.338   2.758   5.591
12626SOL     OW49936   5.060   2.301   5.991
12626SOL    HW149937   5.007   2.359   5.930
12626SOL    HW249938   5.156   2.302   5.964
12627SOL     OW49939   3.903   2.464   7.057
12627SOL    HW149940   3.896   2.375   7.011
12627SOL    HW249941   3.866   2.456   7.150
12628SOL     OW49942   3.865   2.202   6.965
12628SOL    HW149943   3.936   2.172   6.901
12628SOL    HW249944   3.777   2.165   6.935
12629SOL     OW49945   4.708   2.737   6.782
12629SOL    HW149946   4.710   2.716   6.684
12629SOL    HW249947   4.627   2.695   6.823
12630SOL     OW49948   5.336   2.274   5.951
12630SOL    HW149949   5.429   2.244   5.931
12630SOL    HW249950   5.323   2.280   6.050
12631SOL     OW49951   4.564   3.399   6.481
12631SOL    HW149952   4.636   3.370   6.418
12631SOL    HW249953   4.475   3.392   6.437
12632SOL     OW49954   4.492   2.257   5.780
12632SOL    HW149955   4.422   2.258   5.852
12632SOL    HW249956   4.583   2.250   5.822
12633SOL     OW49957   4.652   3.135   5.674
12633SOL    HW149958   4.698   3.107   5.758
12633SOL    HW249959   4.718   3.135   5.598
12634SOL     OW49960   4.880   2.742   6.140
12634SOL    HW149961   4.929   2.772   6.222
12634SOL    HW249962   4.792   2.788   6.135
12635SOL     OW49963   4.526   3.503   7.166
12635SOL    HW149964   4.481   3.444   7.099
12635SOL    HW249965   4.524   3.460   7.256
12636SOL     OW49966   5.044   2.814   6.360
12636SOL    HW149967   5.099   2.781   6.437
12636SOL    HW249968   4.978   2.881   6.394
12637SOL     OW49969   4.012   2.929   6.395
12637SOL    HW149970   3.918   2.963   6.401
12637SOL    HW249971   4.051   2.923   6.487
12638SOL     OW49972   4.622   2.851   6.088
12638SOL    HW149973   4.577   2.785   6.028
12638SOL    HW249974   4.555   2.889   6.152
12639SOL     OW49975   4.934   3.234   6.977
12639SOL    HW149976   4.978   3.314   7.018
12639SOL    HW249977   4.835   3.242   6.986
12640SOL     OW49978   3.693   2.196   5.947
12640SOL    HW149979   3.759   2.211   5.873
12640SOL    HW249980   3.739   2.208   6.036
12641SOL     OW49981   5.411   3.484   5.728
12641SOL    HW149982   5.508   3.457   5.727
12641SOL    HW249983   5.380   3.499   5.634
12642SOL     OW49984   4.497   2.631   6.933
12642SOL    HW149985   4.473   2.715   6.981
12642SOL    HW249986   4.562   2.579   6.989
12643SOL     OW49987   3.744   3.687   6.937
12643SOL    HW149988   3.692   3.773   6.940
12643SOL    HW249989   3.732   3.639   7.024
12644SOL     OW49990   4.481   2.676   5.927
12644SOL    HW149991   4.384   2.698   5.911
12644SOL    HW249992   4.517   2.627   5.848
12645SOL     OW49993   3.982   2.452   6.441
12645SOL    HW149994   4.044   2.419   6.369
12645SOL    HW249995   4.017   2.423   6.531
12646SOL     OW49996   4.001   3.591   5.801
12646SOL    HW149997   4.088   3.623   5.762
12646SOL    HW249998   3.995   3.620   5.897
12647SOL     OW49999   5.150   3.594   6.702
12647SOL    HW150000   5.112   3.686   6.692
12647SOL    HW250001   5.085   3.527   6.667
12648SOL     OW50002   3.763   3.031   6.484
12648SOL    HW150003   3.673   3.024   6.442
12648SOL    HW250004   3.767   2.969   6.563
12649SOL     OW50005   4.542   1.795   5.965
12649SOL    HW150006   4.474   1.764   5.898
12649SOL    HW250007   4.518   1.887   5.996
12650SOL     OW50008   3.728   3.007   6.048
12650SOL    HW150009   3.811   3.062   6.057
12650SOL    HW250010   3.725   2.966   5.956
12651SOL     OW50011   4.890   2.125   6.420
12651SOL    HW150012   4.930   2.184   6.349
12651SOL    HW250013   4.884   2.176   6.506
12652SOL     OW50014   5.099   1.930   5.674
12652SOL    HW150015   5.193   1.896   5.673
12652SOL    HW250016   5.037   1.856   5.700
12653SOL     OW50017   4.379   2.180   6.244
12653SOL    HW150018   4.366   2.103   6.307
12653SOL    HW250019   4.469   2.221   6.259
12654SOL     OW50020   5.040   2.514   6.682
12654SOL    HW150021   5.076   2.591   6.629
12654SOL    HW250022   5.058   2.531   6.779
12655SOL     OW50023   5.236   1.917   6.011
12655SOL    HW150024   5.242   1.825   5.971
12655SOL    HW250025   5.143   1.951   6.001
12656SOL     OW50026   4.277   3.266   7.290
12656SOL    HW150027   4.234   3.326   7.222
12656SOL    HW250028   4.359   3.311   7.326
12657SOL     OW50029   4.118   2.859   7.129
12657SOL    HW150030   4.138   2.883   7.034
12657SOL    HW250031   4.183   2.905   7.190
12658SOL     OW50032   3.810   3.259   6.630
12658SOL    HW150033   3.795   3.187   6.563
12658SOL    HW250034   3.737   3.259   6.698
12659SOL     OW50035   4.800   2.450   6.406
12659SOL    HW150036   4.874   2.429   6.343
12659SOL    HW250037   4.814   2.402   6.493
12660SOL     OW50038   5.466   2.432   7.158
12660SOL    HW150039   5.434   2.526   7.147
12660SOL    HW250040   5.564   2.433   7.178
12661SOL     OW50041   5.279   2.367   7.355
12661SOL    HW150042   5.353   2.375   7.288
12661SOL    HW250043   5.304   2.298   7.424
12662SOL     OW50044   5.020   2.686   5.920
12662SOL    HW150045   4.968   2.708   6.002
12662SOL    HW250046   5.117   2.705   5.936
12663SOL     OW50047   5.243   2.679   6.221
12663SOL    HW150048   5.257   2.707   6.126
12663SOL    HW250049   5.172   2.736   6.263
12664SOL     OW50050   5.405   2.690   7.106
12664SOL    HW150051   5.346   2.771   7.104
12664SOL    HW250052   5.495   2.714   7.068
12665SOL     OW50053   5.263   2.169   5.697
12665SOL    HW150054   5.282   2.200   5.790
12665SOL    HW250055   5.195   2.096   5.699
12666SOL     OW50056   4.423   3.373   6.947
12666SOL    HW150057   4.363   3.451   6.929
12666SOL    HW250058   4.390   3.293   6.898
12667SOL     OW50059   3.822   2.135   7.232
12667SOL    HW150060   3.835   2.150   7.134
12667SOL    HW250061   3.728   2.107   7.250
12668SOL     OW50062   3.729   3.537   7.168
12668SOL    HW150063   3.819   3.554   7.208
12668SOL    HW250064   3.658   3.547   7.238
12669SOL     OW50065   3.833   2.212   6.182
12669SOL    HW150066   3.788   2.285   6.234
12669SOL    HW250067   3.891   2.159   6.244
12670SOL     OW50068   5.070   3.452   7.072
12670SOL    HW150069   4.998   3.517   7.096
12670SOL    HW250070   5.144   3.500   7.024
12671SOL     OW50071   4.009   2.462   5.766
12671SOL    HW150072   4.086   2.482   5.705
12671SOL    HW250073   4.029   2.498   5.857
12672SOL     OW50074   4.001   3.624   6.307
12672SOL    HW150075   3.946   3.542   6.288
12672SOL    HW250076   4.023   3.669   6.221
12673SOL     OW50077   4.060   3.206   6.730
12673SOL    HW150078   4.050   3.206   6.830
12673SOL    HW250079   3.972   3.228   6.688
12674SOL     OW50080   4.850   3.454   7.356
12674SOL    HW150081   4.827   3.361   7.329
12674SOL    HW250082   4.854   3.513   7.275
12675SOL     OW50083   4.438   3.132   6.012
12675SOL    HW150084   4.449   3.071   5.934
12675SOL    HW250085   4.439   3.079   6.096
12676SOL     OW50086   4.107   2.708   6.247
12676SOL    HW150087   4.068   2.784   6.299
12676SOL    HW250088   4.185   2.670   6.296
12677SOL     OW50089   3.907   2.206   5.757
12677SOL    HW150090   3.957   2.155   5.686
12677SOL    HW250091   3.934   2.302   5.753
12678SOL     OW50092   3.729   2.407   6.339
12678SOL    HW150093   3.651   2.452   6.383
12678SOL    HW250094   3.812   2.423   6.393
12679SOL     OW50095   4.167   2.976   5.788
12679SOL    HW150096   4.267   2.982   5.793
12679SOL    HW250097   4.131   3.062   5.751
12680SOL     OW50098   4.809   2.559   5.573
12680SOL    HW150099   4.755   2.621   5.516
12680SOL    HW250100   4.871   2.506   5.515
12681SOL     OW50101   4.554   2.527   5.704
12681SOL    HW150102   4.645   2.527   5.664
12681SOL    HW250103   4.522   2.433   5.715
12682SOL     OW50104   4.987   2.035   6.000
12682SOL    HW150105   4.900   2.028   6.049
12682SOL    HW250106   5.016   2.131   5.997
12683SOL     OW50107   5.045   2.424   7.062
12683SOL    HW150108   5.032   2.406   7.160
12683SOL    HW250109   4.996   2.508   7.037
12684SOL     OW50110   3.762   1.948   5.721
12684SOL    HW150111   3.838   1.892   5.754
12684SOL    HW250112   3.790   2.044   5.717
12685SOL     OW50113   4.123   2.939   6.645
12685SOL    HW150114   4.158   2.901   6.731
12685SOL    HW250115   4.089   3.031   6.661
12686SOL     OW50116   5.401   2.919   5.785
12686SOL    HW150117   5.493   2.946   5.811
12686SOL    HW250118   5.389   2.932   5.686
12687SOL     OW50119   4.341   2.502   6.748
12687SOL    HW150120   4.387   2.551   6.822
12687SOL    HW250121   4.248   2.476   6.777
12688SOL     OW50122   4.459   2.872   7.050
12688SOL    HW150123   4.526   2.931   7.004
12688SOL    HW250124   4.422   2.919   7.130
12689SOL     OW50125   4.843   2.920   7.238
12689SOL    HW150126   4.768   2.854   7.251
12689SOL    HW250127   4.928   2.880   7.272
12690SOL     OW50128   4.733   2.110   6.132
12690SOL    HW150129   4.696   2.194   6.171
12690SOL    HW250130   4.717   2.034   6.195
12691SOL     OW50131   4.864   3.618   7.136
12691SOL    HW150132   4.788   3.626   7.073
12691SOL    HW250133   4.897   3.710   7.160
12692SOL     OW50134   4.328   1.976   6.419
12692SOL    HW150135   4.256   1.920   6.380
12692SOL    HW250136   4.398   1.917   6.460
12693SOL     OW50137   3.990   3.660   6.814
12693SOL    HW150138   3.969   3.611   6.730
12693SOL    HW250139   3.907   3.667   6.870
12694SOL     OW50140   4.657   3.075   6.405
12694SOL    HW150141   4.692   3.160   6.365
12694SOL    HW250142   4.733   3.024   6.446
12695SOL     OW50143   4.333   2.847   6.476
12695SOL    HW150144   4.334   2.752   6.446
12695SOL    HW250145   4.253   2.863   6.534
12696SOL     OW50146   3.788   2.844   6.686
12696SOL    HW150147   3.839   2.807   6.763
12696SOL    HW250148   3.800   2.785   6.606
12697SOL     OW50149   3.991   1.906   6.074
12697SOL    HW150150   4.024   1.999   6.059
12697SOL    HW250151   3.891   1.906   6.076
12698SOL     OW50152   4.343   2.441   7.268
12698SOL    HW150153   4.276   2.483   7.206
12698SOL    HW250154   4.394   2.513   7.314
12699SOL     OW50155   3.772   2.913   5.790
12699SOL    HW150156   3.796   2.818   5.768
12699SOL    HW250157   3.818   2.974   5.725
12700SOL     OW50158   4.483   3.036   6.616
12700SOL    HW150159   4.429   2.962   6.575
12700SOL    HW250160   4.549   3.069   6.548
12701SOL     OW50161   4.901   2.460   5.829
12701SOL    HW150162   4.941   2.542   5.869
12701SOL    HW250163   4.869   2.480   5.737
12702SOL     OW50164   5.230   3.303   7.237
12702SOL    HW150165   5.190   3.223   7.282
12702SOL    HW250166   5.161   3.347   7.179
12703SOL     OW50167   3.881   2.699   6.915
12703SOL    HW150168   3.891   2.611   6.961
12703SOL    HW250169   3.868   2.771   6.983
12704SOL     OW50170   4.487   3.319   5.557
12704SOL    HW150171   4.447   3.378   5.627
12704SOL    HW250172   4.551   3.255   5.600
12705SOL     OW50173   4.216   3.454   6.600
12705SOL    HW150174   4.248   3.432   6.507
12705SOL    HW250175   4.162   3.378   6.635
12706SOL     OW50176   4.440   2.985   6.261
12706SOL    HW150177   4.519   3.030   6.303
12706SOL    HW250178   4.393   2.929   6.329
12707SOL     OW50179   4.640   3.330   6.047
12707SOL    HW150180   4.703   3.344   5.970
12707SOL    HW250181   4.577   3.255   6.025
12708SOL     OW50182   3.827   2.683   6.466
12708SOL    HW150183   3.896   2.618   6.433
12708SOL    HW250184   3.781   2.726   6.388
12709SOL     OW50185   3.727   2.776   7.389
12709SOL    HW150186   3.628   2.775   7.373
12709SOL    HW250187   3.746   2.745   7.483
12710SOL     OW50188   4.644   3.634   6.956
12710SOL    HW150189   4.604   3.581   7.031
12710SOL    HW250190   4.578   3.704   6.926
12711SOL     OW50191   4.853   2.929   6.528
12711SOL    HW150192   4.914   2.937   6.606
12711SOL    HW250193   4.807   2.840   6.530
12712SOL     OW50194   4.252   2.177   7.302
12712SOL    HW150195   4.259   2.128   7.215
12712SOL    HW250196   4.287   2.270   7.291
12713SOL     OW50197   4.216   2.723   5.890
12713SOL    HW150198   4.184   2.814   5.865
12713SOL    HW250199   4.144   2.674   5.940
12714SOL     OW50200   5.175   2.739   6.588
12714SOL    HW150201   5.260   2.708   6.629
12714SOL    HW250202   5.135   2.812   6.645
12715SOL     OW50203   3.720   1.928   6.037
12715SOL    HW150204   3.632   1.881   6.039
12715SOL    HW250205   3.708   2.020   6.000
12716SOL     OW50206   4.144   3.433   7.120
12716SOL    HW150207   4.079   3.487   7.175
12716SOL    HW250208   4.183   3.492   7.049
12717SOL     OW50209   5.454   3.293   7.074
12717SOL    HW150210   5.507   3.374   7.100
12717SOL    HW250211   5.374   3.285   7.134
12718SOL     OW50212   4.869   2.311   6.632
12718SOL    HW150213   4.938   2.382   6.647
12718SOL    HW250214   4.836   2.277   6.720
12719SOL     OW50215   4.122   3.333   6.190
12719SOL    HW150216   4.132   3.234   6.202
12719SOL    HW250217   4.026   3.358   6.201
12720SOL     OW50218   4.718   3.436   6.708
12720SOL    HW150219   4.655   3.415   6.633
12720SOL    HW250220   4.666   3.471   6.786
12721SOL     OW50221   3.979   3.592   7.272
12721SOL    HW150222   4.018   3.681   7.252
12721SOL    HW250223   3.974   3.579   7.371
12722SOL     OW50224   3.832   3.114   7.183
12722SOL    HW150225   3.816   3.018   7.157
12722SOL    HW250226   3.759   3.171   7.144
12723SOL     OW50227   3.888   3.524   6.588
12723SOL    HW150228   3.866   3.427   6.595
12723SOL    HW250229   3.939   3.541   6.505
12724SOL     OW50230   4.679   1.954   6.351
12724SOL    HW150231   4.749   2.010   6.395
12724SOL    HW250232   4.623   1.909   6.422
12725SOL     OW50233   4.736   3.047   5.919
12725SOL    HW150234   4.826   3.074   5.954
12725SOL    HW250235   4.698   2.974   5.976
12726SOL     OW50236   5.336   2.278   6.226
12726SOL    HW150237   5.299   2.336   6.298
12726SOL    HW250238   5.319   2.182   6.248
12727SOL     OW50239   4.442   2.986   5.771
12727SOL    HW150240   4.514   3.046   5.737
12727SOL    HW250241   4.453   2.895   5.732
12728SOL     OW50242   4.480   1.994   5.681
12728SOL    HW150243   4.565   1.947   5.705
12728SOL    HW250244   4.486   2.090   5.708
12729SOL     OW50245   4.155   2.359   6.254
12729SOL    HW150246   4.230   2.294   6.261
12729SOL    HW250247   4.163   2.411   6.169
12730SOL     OW50248   4.242   2.923   6.892
12730SOL    HW150249   4.319   2.882   6.942
12730SOL    HW250250   4.263   3.018   6.872
12731SOL     OW50251   5.387   2.958   6.883
12731SOL    HW150252   5.403   3.045   6.837
12731SOL    HW250253   5.438   2.886   6.836
12732SOL     OW50254   3.890   3.088   5.616
12732SOL    HW150255   3.858   3.112   5.524
12732SOL    HW250256   3.962   3.152   5.644
12733SOL     OW50257   4.354   3.468   5.737
12733SOL    HW150258   4.303   3.553   5.721
12733SOL    HW250259   4.320   3.424   5.819
12734SOL     OW50260   4.989   2.968   7.007
12734SOL    HW150261   4.929   2.934   7.080
12734SOL    HW250262   4.973   3.066   6.994
12735SOL     OW50263   4.246   3.590   6.917
12735SOL    HW150264   4.305   3.670   6.911
12735SOL    HW250265   4.158   3.609   6.872
12736SOL     OW50266   3.810   2.396   7.309
12736SOL    HW150267   3.822   2.298   7.290
12736SOL    HW250268   3.842   2.415   7.402
12737SOL     OW50269   5.302   3.384   6.591
12737SOL    HW150270   5.265   3.467   6.633
12737SOL    HW250271   5.342   3.326   6.662
12738SOL     OW50272   3.696   2.797   6.234
12738SOL    HW150273   3.720   2.875   6.176
12738SOL    HW250274   3.596   2.792   6.243
12739SOL     OW50275   4.139   2.581   7.144
12739SOL    HW150276   4.063   2.538   7.095
12739SOL    HW250277   4.137   2.680   7.130
12740SOL     OW50278   4.380   2.379   6.517
12740SOL    HW150279   4.471   2.338   6.515
12740SOL    HW250280   4.367   2.426   6.605
12741SOL     OW50281   4.325   3.169   6.796
12741SOL    HW150282   4.235   3.191   6.759
12741SOL    HW250283   4.382   3.130   6.723
12742SOL     OW50284   3.856   2.532   6.703
12742SOL    HW150285   3.863   2.598   6.778
12742SOL    HW250286   3.848   2.580   6.616
12743SOL     OW50287   4.028   3.212   7.001
12743SOL    HW150288   4.074   3.291   7.043
12743SOL    HW250289   3.965   3.172   7.067
12744SOL     OW50290   5.343   3.537   7.335
12744SOL    HW150291   5.302   3.450   7.310
12744SOL    HW250292   5.302   3.610   7.281
12745SOL     OW50293   4.990   3.105   5.993
12745SOL    HW150294   5.071   3.133   6.044
12745SOL    HW250295   5.018   3.067   5.905
12746SOL     OW50296   4.311   2.254   5.994
12746SOL    HW150297   4.216   2.227   5.978
12746SOL    HW250298   4.343   2.216   6.080
12747SOL     OW50299   5.289   2.006   6.264
12747SOL    HW150300   5.269   1.976   6.171
12747SOL    HW250301   5.367   1.954   6.300
12748SOL     OW50302   4.911   2.642   6.946
12748SOL    HW150303   5.003   2.679   6.934
12748SOL    HW250304   4.849   2.686   6.881
12749SOL     OW50305   4.342   2.599   6.355
12749SOL    HW150306   4.343   2.521   6.418
12749SOL    HW250307   4.372   2.569   6.265
12750SOL     OW50308   4.971   3.414   6.610
12750SOL    HW150309   4.876   3.413   6.643
12750SOL    HW250310   4.972   3.399   6.512
12751SOL     OW50311   5.011   2.334   6.268
12751SOL    HW150312   5.029   2.324   6.170
12751SOL    HW250313   5.089   2.378   6.312
12752SOL     OW50314   4.796   3.278   8.168
12752SOL    HW150315   4.886   3.320   8.162
12752SOL    HW250316   4.746   3.293   8.083
12753SOL     OW50317   5.334   3.128   7.941
12753SOL    HW150318   5.346   3.208   8.001
12753SOL    HW250319   5.423   3.090   7.916
12754SOL     OW50320   5.327   2.502   8.758
12754SOL    HW150321   5.264   2.446   8.812
12754SOL    HW250322   5.382   2.558   8.819
12755SOL     OW50323   4.020   2.049   7.394
12755SOL    HW150324   3.950   2.077   7.329
12755SOL    HW250325   4.108   2.089   7.369
12756SOL     OW50326   5.047   3.397   8.198
12756SOL    HW150327   5.050   3.496   8.212
12756SOL    HW250328   5.138   3.363   8.175
12757SOL     OW50329   4.885   1.929   8.705
12757SOL    HW150330   4.810   1.874   8.740
12757SOL    HW250331   4.936   1.877   8.636
12758SOL     OW50332   4.653   2.683   9.105
12758SOL    HW150333   4.661   2.605   9.043
12758SOL    HW250334   4.564   2.679   9.151
12759SOL     OW50335   4.225   3.348   7.748
12759SOL    HW150336   4.145   3.358   7.807
12759SOL    HW250337   4.290   3.284   7.790
12760SOL     OW50338   4.342   2.094   7.551
12760SOL    HW150339   4.406   2.165   7.581
12760SOL    HW250340   4.308   2.116   7.459
12761SOL     OW50341   5.292   2.890   8.916
12761SOL    HW150342   5.195   2.904   8.896
12761SOL    HW250343   5.346   2.920   8.838
12762SOL     OW50344   5.134   2.911   8.603
12762SOL    HW150345   5.088   2.902   8.692
12762SOL    HW250346   5.185   2.997   8.601
12763SOL     OW50347   4.713   3.173   8.871
12763SOL    HW150348   4.655   3.248   8.838
12763SOL    HW250349   4.703   3.094   8.811
12764SOL     OW50350   4.264   3.005   8.049
12764SOL    HW150351   4.183   2.982   8.104
12764SOL    HW250352   4.346   2.972   8.096
12765SOL     OW50353   4.448   2.449   7.963
12765SOL    HW150354   4.481   2.528   7.911
12765SOL    HW250355   4.403   2.384   7.902
12766SOL     OW50356   4.976   2.376   9.125
12766SOL    HW150357   5.069   2.356   9.157
12766SOL    HW250358   4.917   2.298   9.143
12767SOL     OW50359   4.112   3.270   7.508
12767SOL    HW150360   4.170   3.266   7.426
12767SOL    HW250361   4.169   3.289   7.588
12768SOL     OW50362   4.249   2.151   8.406
12768SOL    HW150363   4.313   2.228   8.405
12768SOL    HW250364   4.292   2.072   8.363
12769SOL     OW50365   4.710   3.586   7.947
12769SOL    HW150366   4.696   3.488   7.959
12769SOL    HW250367   4.662   3.617   7.865
12770SOL     OW50368   5.479   3.464   7.793
12770SOL    HW150369   5.569   3.424   7.776
12770SOL    HW250370   5.450   3.517   7.714
12771SOL     OW50371   5.373   2.179   8.506
12771SOL    HW150372   5.412   2.271   8.513
12771SOL    HW250373   5.273   2.185   8.505
12772SOL     OW50374   4.763   2.206   7.730
12772SOL    HW150375   4.812   2.292   7.743
12772SOL    HW250376   4.774   2.149   7.812
12773SOL     OW50377   3.943   2.890   8.949
12773SOL    HW150378   3.900   2.979   8.943
12773SOL    HW250379   3.927   2.851   9.039
12774SOL     OW50380   4.112   2.526   7.416
12774SOL    HW150381   4.100   2.559   7.323
12774SOL    HW250382   4.201   2.481   7.425
12775SOL     OW50383   4.703   2.464   8.946
12775SOL    HW150384   4.744   2.387   8.996
12775SOL    HW250385   4.774   2.509   8.891
12776SOL     OW50386   5.317   3.308   8.190
12776SOL    HW150387   5.326   3.327   8.287
12776SOL    HW250388   5.372   3.373   8.137
12777SOL     OW50389   4.943   2.185   7.515
12777SOL    HW150390   5.004   2.107   7.528
12777SOL    HW250391   4.870   2.182   7.584
12778SOL     OW50392   4.072   2.418   8.557
12778SOL    HW150393   4.070   2.319   8.572
12778SOL    HW250394   3.980   2.455   8.568
12779SOL     OW50395   5.113   2.631   8.648
12779SOL    HW150396   5.132   2.726   8.625
12779SOL    HW250397   5.196   2.588   8.683
12780SOL     OW50398   4.066   2.121   7.846
12780SOL    HW150399   4.012   2.158   7.922
12780SOL    HW250400   4.023   2.146   7.760
12781SOL     OW50401   5.243   3.584   8.710
12781SOL    HW150402   5.170   3.583   8.642
12781SOL    HW250403   5.332   3.583   8.665
12782SOL     OW50404   5.466   2.435   8.537
12782SOL    HW150405   5.560   2.467   8.545
12782SOL    HW250406   5.416   2.459   8.620
12783SOL     OW50407   5.501   3.584   8.569
12783SOL    HW150408   5.535   3.625   8.653
12783SOL    HW250409   5.576   3.571   8.505
12784SOL     OW50410   4.644   2.289   8.063
12784SOL    HW150411   4.705   2.337   8.125
12784SOL    HW250412   4.581   2.354   8.021
12785SOL     OW50413   4.923   2.839   7.568
12785SOL    HW150414   4.946   2.785   7.649
12785SOL    HW250415   4.880   2.780   7.500
12786SOL     OW50416   4.781   2.186   9.173
12786SOL    HW150417   4.797   2.170   9.270
12786SOL    HW250418   4.686   2.164   9.150
12787SOL     OW50419   5.440   2.540   7.766
12787SOL    HW150420   5.390   2.454   7.778
12787SOL    HW250421   5.508   2.549   7.838
12788SOL     OW50422   4.691   3.664   7.481
12788SOL    HW150423   4.737   3.587   7.438
12788SOL    HW250424   4.677   3.645   7.578
12789SOL     OW50425   4.498   1.879   9.094
12789SOL    HW150426   4.518   1.785   9.068
12789SOL    HW250427   4.501   1.889   9.193
12790SOL     OW50428   5.376   2.543   8.303
12790SOL    HW150429   5.334   2.633   8.316
12790SOL    HW250430   5.399   2.504   8.392
12791SOL     OW50431   4.811   3.130   9.130
12791SOL    HW150432   4.844   3.036   9.121
12791SOL    HW250433   4.762   3.156   9.046
12792SOL     OW50434   5.083   1.820   8.267
12792SOL    HW150435   5.038   1.909   8.277
12792SOL    HW250436   5.170   1.832   8.219
12793SOL     OW50437   5.456   2.065   9.201
12793SOL    HW150438   5.387   2.098   9.266
12793SOL    HW250439   5.513   1.996   9.245
12794SOL     OW50440   3.781   2.541   7.955
12794SOL    HW150441   3.788   2.475   8.029
12794SOL    HW250442   3.752   2.629   7.992
12795SOL     OW50443   4.046   2.061   8.216
12795SOL    HW150444   4.112   2.096   8.282
12795SOL    HW250445   4.077   1.973   8.181
12796SOL     OW50446   4.062   2.115   8.606
12796SOL    HW150447   4.045   2.017   8.620
12796SOL    HW250448   4.129   2.127   8.533
12797SOL     OW50449   4.757   2.643   8.345
12797SOL    HW150450   4.722   2.710   8.279
12797SOL    HW250451   4.770   2.555   8.299
12798SOL     OW50452   3.915   3.364   7.673
12798SOL    HW150453   3.851   3.292   7.702
12798SOL    HW250454   3.980   3.326   7.607
12799SOL     OW50455   5.186   3.186   8.636
12799SOL    HW150456   5.148   3.235   8.558
12799SOL    HW250457   5.119   3.185   8.711
12800SOL     OW50458   5.450   3.232   8.673
12800SOL    HW150459   5.472   3.272   8.762
12800SOL    HW250460   5.352   3.214   8.668
12801SOL     OW50461   4.700   2.974   8.679
12801SOL    HW150462   4.719   2.876   8.675
12801SOL    HW250463   4.620   2.995   8.623
12802SOL     OW50464   3.771   2.706   7.651
12802SOL    HW150465   3.847   2.716   7.715
12802SOL    HW250466   3.701   2.646   7.691
12803SOL     OW50467   5.273   2.756   7.797
12803SOL    HW150468   5.332   2.677   7.784
12803SOL    HW250469   5.295   2.826   7.729
12804SOL     OW50470   4.589   3.623   8.420
12804SOL    HW150471   4.608   3.530   8.391
12804SOL    HW250472   4.490   3.636   8.431
12805SOL     OW50473   4.432   2.672   7.409
12805SOL    HW150474   4.478   2.623   7.484
12805SOL    HW250475   4.403   2.762   7.442
12806SOL     OW50476   5.057   2.267   7.838
12806SOL    HW150477   5.009   2.335   7.783
12806SOL    HW250478   5.156   2.284   7.834
12807SOL     OW50479   3.927   2.462   8.880
12807SOL    HW150480   3.905   2.375   8.836
12807SOL    HW250481   3.897   2.460   8.975
12808SOL     OW50482   3.870   2.206   8.788
12808SOL    HW150483   3.939   2.173   8.724
12808SOL    HW250484   3.780   2.173   8.760
12809SOL     OW50485   4.707   2.706   8.608
12809SOL    HW150486   4.725   2.684   8.512
12809SOL    HW250487   4.626   2.656   8.638
12810SOL     OW50488   5.329   2.299   7.854
12810SOL    HW150489   5.411   2.242   7.846
12810SOL    HW250490   5.313   2.320   7.950
12811SOL     OW50491   4.645   3.365   8.378
12811SOL    HW150492   4.701   3.339   8.300
12811SOL    HW250493   4.615   3.282   8.426
12812SOL     OW50494   4.507   2.278   7.674
12812SOL    HW150495   4.445   2.245   7.745
12812SOL    HW250496   4.599   2.242   7.690
12813SOL     OW50497   4.667   3.205   7.518
12813SOL    HW150498   4.731   3.252   7.578
12813SOL    HW250499   4.710   3.188   7.429
12814SOL     OW50500   5.459   3.497   8.061
12814SOL    HW150501   5.412   3.581   8.088
12814SOL    HW250502   5.460   3.490   7.961
12815SOL     OW50503   4.891   2.727   8.023
12815SOL    HW150504   4.942   2.768   8.099
12815SOL    HW250505   4.805   2.776   8.010
12816SOL     OW50506   5.042   2.850   8.216
12816SOL    HW150507   5.111   2.817   8.281
12816SOL    HW250508   5.017   2.944   8.239
12817SOL     OW50509   4.025   2.908   8.227
12817SOL    HW150510   3.934   2.947   8.216
12817SOL    HW250511   4.038   2.878   8.322
12818SOL     OW50512   4.655   2.855   7.970
12818SOL    HW150513   4.615   2.785   7.911
12818SOL    HW250514   4.588   2.880   8.041
12819SOL     OW50515   4.981   3.195   8.820
12819SOL    HW150516   5.021   3.281   8.851
12819SOL    HW250517   4.883   3.195   8.839
12820SOL     OW50518   3.732   2.172   7.826
12820SOL    HW150519   3.792   2.175   7.745
12820SOL    HW250520   3.787   2.188   7.908
12821SOL     OW50521   5.388   3.639   7.586
12821SOL    HW150522   5.475   3.687   7.583
12821SOL    HW250523   5.373   3.590   7.500
12822SOL     OW50524   4.511   2.585   8.780
12822SOL    HW150525   4.493   2.667   8.834
12822SOL    HW250526   4.571   2.523   8.831
12823SOL     OW50527   3.734   3.694   8.762
12823SOL    HW150528   3.686   3.782   8.768
12823SOL    HW250529   3.735   3.650   8.852
12824SOL     OW50530   4.526   2.669   7.822
12824SOL    HW150531   4.428   2.685   7.833
12824SOL    HW250532   4.543   2.629   7.732
12825SOL     OW50533   4.024   2.500   8.281
12825SOL    HW150534   4.090   2.453   8.222
12825SOL    HW250535   4.048   2.485   8.377
12826SOL     OW50536   3.977   3.607   7.547
12826SOL    HW150537   4.069   3.647   7.556
12826SOL    HW250538   3.969   3.529   7.610
12827SOL     OW50539   5.028   3.559   8.526
12827SOL    HW150540   5.047   3.606   8.440
12827SOL    HW250541   5.029   3.460   8.511
12828SOL     OW50542   3.758   2.998   8.241
12828SOL    HW150543   3.664   2.992   8.208
12828SOL    HW250544   3.760   2.990   8.341
12829SOL     OW50545   4.388   1.929   7.780
12829SOL    HW150546   4.370   1.951   7.684
12829SOL    HW250547   4.383   2.012   7.835
12830SOL     OW50548   3.696   3.008   7.935
12830SOL    HW150549   3.771   3.049   7.987
12830SOL    HW250550   3.718   3.010   7.837
12831SOL     OW50551   5.305   2.125   8.965
12831SOL    HW150552   5.263   2.215   8.970
12831SOL    HW250553   5.358   2.108   9.048
12832SOL     OW50554   4.983   2.076   8.309
12832SOL    HW150555   4.998   2.139   8.232
12832SOL    HW250556   5.027   2.114   8.391
12833SOL     OW50557   5.115   1.978   7.586
12833SOL    HW150558   5.177   1.900   7.578
12833SOL    HW250559   5.066   1.974   7.673
12834SOL     OW50560   5.275   1.847   8.949
12834SOL    HW150561   5.263   1.816   8.854
12834SOL    HW250562   5.282   1.947   8.950
12835SOL     OW50563   4.398   2.170   8.126
12835SOL    HW150564   4.388   2.083   8.173
12835SOL    HW250565   4.495   2.196   8.123
12836SOL     OW50566   4.963   2.456   8.502
12836SOL    HW150567   4.933   2.506   8.421
12836SOL    HW250568   5.016   2.517   8.561
12837SOL     OW50569   5.266   1.897   7.859
12837SOL    HW150570   5.292   1.854   7.772
12837SOL    HW250571   5.172   1.930   7.853
12838SOL     OW50572   4.815   2.394   8.245
12838SOL    HW150573   4.897   2.355   8.203
12838SOL    HW250574   4.790   2.339   8.325
12839SOL     OW50575   5.461   2.462   9.109
12839SOL    HW150576   5.446   2.535   9.042
12839SOL    HW250577   5.559   2.448   9.120
12840SOL     OW50578   5.095   2.212   8.525
12840SOL    HW150579   5.054   2.303   8.514
12840SOL    HW250580   5.083   2.180   8.619
12841SOL     OW50581   5.234   2.322   9.195
12841SOL    HW150582   5.317   2.371   9.168
12841SOL    HW250583   5.255   2.264   9.274
12842SOL     OW50584   5.006   2.690   7.784
12842SOL    HW150585   4.962   2.701   7.874
12842SOL    HW250586   5.103   2.713   7.792
12843SOL     OW50587   5.273   2.832   8.057
12843SOL    HW150588   5.270   2.811   7.959
12843SOL    HW250589   5.181   2.829   8.095
12844SOL     OW50590   5.460   2.672   8.920
12844SOL    HW150591   5.394   2.747   8.916
12844SOL    HW250592   5.552   2.709   8.929
12845SOL     OW50593   5.310   2.181   7.561
12845SOL    HW150594   5.325   2.216   7.654
12845SOL    HW250595   5.235   2.115   7.563
12846SOL     OW50596   4.575   3.380   8.759
12846SOL    HW150597   4.506   3.444   8.793
12846SOL    HW250598   4.641   3.429   8.702
12847SOL     OW50599   3.840   2.142   9.061
12847SOL    HW150600   3.854   2.159   8.963
12847SOL    HW250601   3.747   2.107   9.075
12848SOL     OW50602   3.726   3.580   9.029
12848SOL    HW150603   3.802   3.611   9.085
12848SOL    HW250604   3.642   3.579   9.083
12849SOL     OW50605   3.888   2.199   8.047
12849SOL    HW150606   3.839   2.270   8.099
12849SOL    HW250607   3.943   2.145   8.110
12850SOL     OW50608   5.104   3.422   8.889
12850SOL    HW150609   5.041   3.483   8.938
12850SOL    HW250610   5.158   3.475   8.824
12851SOL     OW50611   3.905   2.444   7.563
12851SOL    HW150612   3.987   2.478   7.517
12851SOL    HW250613   3.862   2.519   7.613
12852SOL     OW50614   5.471   2.074   8.747
12852SOL    HW150615   5.406   2.101   8.818
12852SOL    HW250616   5.438   2.104   8.657
12853SOL     OW50617   4.936   3.371   9.214
12853SOL    HW150618   4.892   3.286   9.184
12853SOL    HW250619   4.923   3.442   9.144
12854SOL     OW50620   4.391   3.166   7.862
12854SOL    HW150621   4.445   3.109   7.801
12854SOL    HW250622   4.343   3.108   7.928
12855SOL     OW50623   4.070   2.699   8.052
12855SOL    HW150624   4.056   2.779   8.110
12855SOL    HW250625   4.057   2.616   8.106
12856SOL     OW50626   3.918   2.177   7.617
12856SOL    HW150627   3.966   2.130   7.543
12856SOL    HW250628   3.915   2.275   7.598
12857SOL     OW50629   3.775   2.402   8.192
12857SOL    HW150630   3.694   2.440   8.238
12857SOL    HW250631   3.857   2.431   8.241
12858SOL     OW50632   4.366   2.924   7.512
12858SOL    HW150633   4.433   2.960   7.577
12858SOL    HW250634   4.274   2.943   7.546
12859SOL     OW50635   4.818   2.539   7.451
12859SOL    HW150636   4.775   2.603   7.387
12859SOL    HW250637   4.888   2.487   7.404
12860SOL     OW50638   4.573   2.529   7.590
12860SOL    HW150639   4.664   2.528   7.550
12860SOL    HW250640   4.546   2.436   7.615
12861SOL     OW50641   5.010   2.001   7.837
12861SOL    HW150642   4.923   1.987   7.886
12861SOL    HW250643   5.033   2.098   7.837
12862SOL     OW50644   5.140   2.361   8.893
12862SOL    HW150645   5.081   2.394   8.967
12862SOL    HW250646   5.094   2.286   8.845
12863SOL     OW50647   3.755   1.926   7.598
12863SOL    HW150648   3.819   1.893   7.667
12863SOL    HW250649   3.786   2.013   7.562
12864SOL     OW50650   4.038   2.841   8.519
12864SOL    HW150651   4.019   2.785   8.600
12864SOL    HW250652   4.129   2.882   8.528
12865SOL     OW50653   5.346   2.918   7.593
12865SOL    HW150654   5.444   2.936   7.602
12865SOL    HW250655   5.325   2.896   7.497
12866SOL     OW50656   4.324   2.553   8.572
12866SOL    HW150657   4.373   2.550   8.660
12866SOL    HW250658   4.237   2.505   8.581
12867SOL     OW50659   4.865   2.860   9.071
12867SOL    HW150660   4.781   2.805   9.076
12867SOL    HW250661   4.944   2.801   9.089
12868SOL     OW50662   4.772   2.065   7.977
12868SOL    HW150663   4.725   2.151   8.001
12868SOL    HW250664   4.765   2.001   8.053
12869SOL     OW50665   4.939   3.588   9.026
12869SOL    HW150666   4.858   3.620   8.977
12869SOL    HW250667   5.009   3.659   9.025
12870SOL     OW50668   4.354   1.942   8.265
12870SOL    HW150669   4.296   1.869   8.230
12870SOL    HW250670   4.436   1.902   8.305
12871SOL     OW50671   3.945   3.746   8.589
12871SOL    HW150672   3.911   3.709   8.503
12871SOL    HW250673   3.881   3.723   8.663
12872SOL     OW50674   4.704   3.055   8.298
12872SOL    HW150675   4.732   3.129   8.238
12872SOL    HW250676   4.778   3.035   8.363
12873SOL     OW50677   4.415   2.745   8.389
12873SOL    HW150678   4.445   2.680   8.319
12873SOL    HW250679   4.372   2.695   8.464
12874SOL     OW50680   3.767   2.887   8.501
12874SOL    HW150681   3.866   2.890   8.517
12874SOL    HW250682   3.746   2.814   8.437
12875SOL     OW50683   3.938   1.868   7.804
12875SOL    HW150684   3.998   1.945   7.828
12875SOL    HW250685   3.857   1.870   7.862
12876SOL     OW50686   4.281   2.452   9.109
12876SOL    HW150687   4.258   2.484   9.017
12876SOL    HW250688   4.342   2.517   9.152
12877SOL     OW50689   3.762   2.991   7.659
12877SOL    HW150690   3.776   2.892   7.659
12877SOL    HW250691   3.815   3.032   7.584
12878SOL     OW50692   5.411   2.112   8.233
12878SOL    HW150693   5.416   2.121   8.333
12878SOL    HW250694   5.503   2.119   8.195
12879SOL     OW50695   4.513   2.988   8.485
12879SOL    HW150696   4.472   2.901   8.459
12879SOL    HW250697   4.574   3.020   8.413
12880SOL     OW50698   4.903   2.450   7.704
12880SOL    HW150699   4.937   2.535   7.744
12880SOL    HW250700   4.873   2.467   7.610
12881SOL     OW50701   5.262   3.317   9.085
12881SOL    HW150702   5.228   3.237   9.134
12881SOL    HW250703   5.194   3.346   9.018
12882SOL     OW50704   3.959   2.705   8.752
12882SOL    HW150705   3.946   2.618   8.799
12882SOL    HW250706   3.960   2.780   8.819
12883SOL     OW50707   4.491   3.385   7.411
12883SOL    HW150708   4.456   3.445   7.483
12883SOL    HW250709   4.553   3.318   7.451
12884SOL     OW50710   4.312   3.654   8.444
12884SOL    HW150711   4.258   3.584   8.398
12884SOL    HW250712   4.273   3.674   8.533
12885SOL     OW50713   4.491   2.920   8.181
12885SOL    HW150714   4.566   2.974   8.218
12885SOL    HW250715   4.456   2.859   8.252
12886SOL     OW50716   4.644   3.306   7.941
12886SOL    HW150717   4.703   3.235   7.901
12886SOL    HW250718   4.549   3.284   7.921
12887SOL     OW50719   3.805   2.686   8.309
12887SOL    HW150720   3.890   2.640   8.283
12887SOL    HW250721   3.757   2.716   8.227
12888SOL     OW50722   3.859   2.756   9.180
12888SOL    HW150723   3.782   2.744   9.117
12888SOL    HW250724   3.833   2.724   9.271
12889SOL     OW50725   4.739   3.673   8.856
12889SOL    HW150726   4.741   3.614   8.776
12889SOL    HW250727   4.646   3.708   8.870
12890SOL     OW50728   4.900   3.036   8.494
12890SOL    HW150729   4.833   3.026   8.567
12890SOL    HW250730   4.982   2.983   8.517
12891SOL     OW50731   4.259   2.182   9.128
12891SOL    HW150732   4.325   2.143   9.063
12891SOL    HW250733   4.268   2.282   9.127
12892SOL     OW50734   5.265   2.805   8.377
12892SOL    HW150735   5.312   2.881   8.332
12892SOL    HW250736   5.232   2.834   8.467
12893SOL     OW50737   5.056   2.123   8.784
12893SOL    HW150738   5.118   2.085   8.851
12893SOL    HW250739   4.986   2.056   8.760
12894SOL     OW50740   3.686   1.915   7.914
12894SOL    HW150741   3.589   1.890   7.918
12894SOL    HW250742   3.695   2.010   7.883
12895SOL     OW50743   4.964   1.977   9.136
12895SOL    HW150744   5.012   1.971   9.224
12895SOL    HW250745   4.901   2.054   9.138
12896SOL     OW50746   5.486   3.327   8.930
12896SOL    HW150747   5.530   3.415   8.951
12896SOL    HW250748   5.403   3.317   8.985
12897SOL     OW50749   4.728   2.301   8.499
12897SOL    HW150750   4.804   2.362   8.523
12897SOL    HW250751   4.746   2.210   8.535
12898SOL     OW50752   4.755   3.541   8.622
12898SOL    HW150753   4.696   3.577   8.550
12898SOL    HW250754   4.847   3.526   8.585
12899SOL     OW50755   3.921   3.679   9.224
12899SOL    HW150756   3.979   3.759   9.212
12899SOL    HW250757   3.964   3.616   9.289
12900SOL     OW50758   3.767   3.106   8.937
12900SOL    HW150759   3.727   3.053   8.863
12900SOL    HW250760   3.730   3.198   8.936
12901SOL     OW50761   4.747   1.956   8.229
12901SOL    HW150762   4.828   1.997   8.270
12901SOL    HW250763   4.686   1.923   8.301
12902SOL     OW50764   4.787   3.079   7.883
12902SOL    HW150765   4.887   3.081   7.890
12902SOL    HW250766   4.752   2.994   7.922
12903SOL     OW50767   5.293   2.338   8.128
12903SOL    HW150768   5.320   2.417   8.182
12903SOL    HW250769   5.335   2.256   8.165
12904SOL     OW50770   4.553   3.026   7.689
12904SOL    HW150771   4.591   3.091   7.622
12904SOL    HW250772   4.626   2.996   7.751
12905SOL     OW50773   4.216   2.388   8.129
12905SOL    HW150774   4.259   2.300   8.147
12905SOL    HW250775   4.274   2.442   8.068
12906SOL     OW50776   5.446   2.954   8.698
12906SOL    HW150777   5.461   3.053   8.687
12906SOL    HW250778   5.503   2.904   8.633
12907SOL     OW50779   3.922   3.086   7.451
12907SOL    HW150780   3.884   3.092   7.358
12907SOL    HW250781   3.988   3.159   7.465
12908SOL     OW50782   4.368   3.533   7.607
12908SOL    HW150783   4.307   3.599   7.563
12908SOL    HW250784   4.314   3.469   7.662
12909SOL     OW50785   5.027   2.932   8.852
12909SOL    HW150786   4.965   2.893   8.920
12909SOL    HW250787   5.010   3.030   8.844
12910SOL     OW50788   3.852   2.408   9.142
12910SOL    HW150789   3.855   2.309   9.132
12910SOL    HW250790   3.924   2.437   9.205
12911SOL     OW50791   5.361   3.377   8.447
12911SOL    HW150792   5.398   3.467   8.471
12911SOL    HW250793   5.387   3.310   8.517
12912SOL     OW50794   3.670   2.760   8.067
12912SOL    HW150795   3.684   2.849   8.023
12912SOL    HW250796   3.572   2.742   8.075
12913SOL     OW50797   4.192   2.541   8.868
12913SOL    HW150798   4.102   2.497   8.871
12913SOL    HW250799   4.188   2.622   8.809
12914SOL     OW50800   5.351   3.033   8.234
12914SOL    HW150801   5.330   3.129   8.216
12914SOL    HW250802   5.327   2.978   8.153
12915SOL     OW50803   4.455   2.352   8.425
12915SOL    HW150804   4.549   2.336   8.452
12915SOL    HW250805   4.416   2.427   8.478
12916SOL     OW50806   3.830   2.558   8.554
12916SOL    HW150807   3.864   2.624   8.621
12916SOL    HW250808   3.814   2.604   8.467
12917SOL     OW50809   5.331   3.574   9.172
12917SOL    HW150810   5.306   3.479   9.157
12917SOL    HW250811   5.282   3.632   9.106
12918SOL     OW50812   5.065   3.079   7.889
12918SOL    HW150813   5.161   3.090   7.916
12918SOL    HW250814   5.060   3.069   7.790
12919SOL     OW50815   4.331   2.201   7.868
12919SOL    HW150816   4.237   2.173   7.850
12919SOL    HW250817   4.351   2.188   7.966
12920SOL     OW50818   5.310   1.879   8.126
12920SOL    HW150819   5.298   1.892   8.027
12920SOL    HW250820   5.348   1.963   8.166
12921SOL     OW50821   4.876   2.597   8.792
12921SOL    HW150822   4.972   2.603   8.764
12921SOL    HW250823   4.819   2.643   8.724
12922SOL     OW50824   4.480   2.545   8.220
12922SOL    HW150825   4.470   2.465   8.279
12922SOL    HW250826   4.471   2.517   8.125
12923SOL     OW50827   5.012   3.294   8.451
12923SOL    HW150828   4.958   3.210   8.459
12923SOL    HW250829   5.017   3.321   8.355
12924SOL     OW50830   5.027   2.272   8.119
12924SOL    HW150831   5.010   2.262   8.021
12924SOL    HW250832   5.122   2.302   8.133
12925SOL     OW50833   4.842   3.335   0.004
12925SOL    HW150834   4.903   3.255   0.010
12925SOL    HW250835   4.788   3.330   9.920
12926SOL     OW50836   5.378   3.102   9.817
12926SOL    HW150837   5.413   3.146   9.900
12926SOL    HW250838   5.455   3.063   9.766
12927SOL     OW50839   4.047   2.041   9.205
12927SOL    HW150840   3.967   2.071   9.153
12927SOL    HW250841   4.127   2.093   9.176
12928SOL     OW50842   4.240   1.885   9.354
12928SOL    HW150843   4.333   1.921   9.360
12928SOL    HW250844   4.183   1.947   9.300
12929SOL     OW50845   4.074   3.012   9.865
12929SOL    HW150846   4.013   3.051   9.934
12929SOL    HW250847   4.169   3.036   9.887
12930SOL     OW50848   4.435   2.454   9.777
12930SOL    HW150849   4.468   2.535   9.728
12930SOL    HW250850   4.411   2.383   9.710
12931SOL     OW50851   3.987   2.652   9.662
12931SOL    HW150852   4.071   2.659   9.716
12931SOL    HW250853   3.913   2.696   9.712
12932SOL     OW50854   4.644   3.582   9.827
12932SOL    HW150855   4.662   3.485   9.808
12932SOL    HW250856   4.571   3.614   9.767
12933SOL     OW50857   5.492   3.473   9.629
12933SOL    HW150858   5.581   3.435   9.605
12933SOL    HW250859   5.460   3.533   9.556
12934SOL     OW50860   4.750   2.152   9.685
12934SOL    HW150861   4.722   2.220   9.752
12934SOL    HW250862   4.779   2.069   9.732
12935SOL     OW50863   4.080   2.493   9.291
12935SOL    HW150864   4.087   2.592   9.297
12935SOL    HW250865   4.150   2.458   9.228
12936SOL     OW50866   5.499   3.241   0.037
12936SOL    HW150867   5.440   3.256   0.117
12936SOL    HW250868   5.505   3.326   9.984
12937SOL     OW50869   3.914   3.132   9.668
12937SOL    HW150870   3.977   3.088   9.732
12937SOL    HW250871   3.894   3.070   9.592
12938SOL     OW50872   4.842   2.117   9.424
12938SOL    HW150873   4.918   2.052   9.420
12938SOL    HW250874   4.822   2.139   9.520
12939SOL     OW50875   4.102   2.164   9.712
12939SOL    HW150876   4.071   2.243   9.659
12939SOL    HW250877   4.050   2.083   9.685
12940SOL     OW50878   5.598   3.823   0.306
12940SOL    HW150879   5.579   3.797   0.400
12940SOL    HW250880   5.695   3.808   0.286
12941SOL     OW50881   4.652   2.320   9.879
12941SOL    HW150882   4.720   2.372   9.931
12941SOL    HW250883   4.577   2.381   9.852
12942SOL     OW50884   4.979   2.848   9.397
12942SOL    HW150885   4.983   2.791   9.479
12942SOL    HW250886   4.899   2.823   9.343
12943SOL     OW50887   5.425   2.508   9.566
12943SOL    HW150888   5.366   2.427   9.557
12943SOL    HW250889   5.484   2.497   9.646
12944SOL     OW50890   4.690   3.714   9.471
12944SOL    HW150891   4.739   3.627   9.475
12944SOL    HW250892   4.747   3.786   9.512
12945SOL     OW50893   3.741   2.471   9.766
12945SOL    HW150894   3.705   2.441   9.854
12945SOL    HW250895   3.770   2.566   9.772
12946SOL     OW50896   3.843   3.376   9.559
12946SOL    HW150897   3.878   3.294   9.605
12946SOL    HW250898   3.919   3.422   9.511
12947SOL     OW50899   3.912   3.519   9.855
12947SOL    HW150900   3.816   3.497   9.870
12947SOL    HW250901   3.922   3.567   9.767
12948SOL     OW50902   4.116   2.769   9.277
12948SOL    HW150903   4.024   2.771   9.237
12948SOL    HW250904   4.168   2.848   9.244
12949SOL     OW50905   3.810   2.690   9.444
12949SOL    HW150906   3.881   2.671   9.511
12949SOL    HW250907   3.727   2.639   9.467
12950SOL     OW50908   5.291   2.736   9.633
12950SOL    HW150909   5.337   2.652   9.607
12950SOL    HW250910   5.313   2.809   9.568
12951SOL     OW50911   4.425   2.630   9.260
12951SOL    HW150912   4.478   2.573   9.322
12951SOL    HW250913   4.358   2.683   9.312
12952SOL     OW50914   5.062   2.257   9.643
12952SOL    HW150915   5.018   2.326   9.586
12952SOL    HW250916   5.161   2.268   9.638
12953SOL     OW50917   5.335   2.254   9.670
12953SOL    HW150918   5.432   2.233   9.658
12953SOL    HW250919   5.316   2.272   9.766
12954SOL     OW50920   4.544   2.210   9.513
12954SOL    HW150921   4.468   2.188   9.574
12954SOL    HW250922   4.631   2.191   9.560
12955SOL     OW50923   4.708   3.045   9.388
12955SOL    HW150924   4.771   3.059   9.465
12955SOL    HW250925   4.745   3.089   9.306
12956SOL     OW50926   5.511   3.476   9.902
12956SOL    HW150927   5.462   3.556   9.939
12956SOL    HW250928   5.497   3.471   9.803
12957SOL     OW50929   4.872   2.701   9.870
12957SOL    HW150930   4.946   2.760   9.904
12957SOL    HW250931   4.799   2.758   9.833
12958SOL     OW50932   5.066   2.878   9.929
12958SOL    HW150933   5.029   2.925   0.009
12958SOL    HW250934   5.085   2.946   9.857
12959SOL     OW50935   4.680   2.853   9.756
12959SOL    HW150936   4.622   2.781   9.719
12959SOL    HW250937   4.627   2.937   9.767
12960SOL     OW50938   3.734   2.237   9.621
12960SOL    HW150939   3.803   2.217   9.551
12960SOL    HW250940   3.760   2.320   9.671
12961SOL     OW50941   5.381   3.666   9.438
12961SOL    HW150942   5.466   3.715   9.416
12961SOL    HW250943   5.346   3.623   9.355
12962SOL     OW50944   4.522   2.662   9.615
12962SOL    HW150945   4.427   2.684   9.594
12962SOL    HW250946   4.557   2.597   9.548
12963SOL     OW50947   4.034   3.539   9.436
12963SOL    HW150948   4.133   3.546   9.424
12963SOL    HW250949   4.006   3.598   9.512
12964SOL     OW50950   4.474   1.889   9.657
12964SOL    HW150951   4.475   1.886   9.557
12964SOL    HW250952   4.438   1.976   9.688
12965SOL     OW50953   3.666   3.004   9.704
12965SOL    HW150954   3.725   3.078   9.735
12965SOL    HW250955   3.678   2.991   9.606
12966SOL     OW50956   5.064   1.939   9.406
12966SOL    HW150957   5.064   1.841   9.386
12966SOL    HW250958   5.056   1.952   9.505
12967SOL     OW50959   4.458   2.153   9.982
12967SOL    HW150960   4.478   2.099   0.063
12967SOL    HW250961   4.539   2.205   9.956
12968SOL     OW50962   5.306   1.914   9.663
12968SOL    HW150963   5.325   1.860   9.581
12968SOL    HW250964   5.209   1.934   9.668
12969SOL     OW50965   5.016   2.696   9.627
12969SOL    HW150966   4.969   2.691   9.715
12969SOL    HW250967   5.113   2.716   9.642
12970SOL     OW50968   5.318   2.770   9.903
12970SOL    HW150969   5.319   2.758   9.804
12970SOL    HW250970   5.227   2.801   9.931
12971SOL     OW50971   5.276   2.135   9.400
12971SOL    HW150972   5.294   2.158   9.495
12971SOL    HW250973   5.204   2.066   9.396
12972SOL     OW50974   4.026   2.391   9.541
12972SOL    HW150975   4.054   2.426   9.452
12972SOL    HW250976   4.006   2.468   9.602
12973SOL     OW50977   4.102   3.661   0.005
12973SOL    HW150978   4.024   3.625   9.954
12973SOL    HW250979   4.181   3.601   9.992
12974SOL     OW50980   4.531   3.086   9.743
12974SOL    HW150981   4.502   3.054   9.653
12974SOL    HW250982   4.455   3.080   9.807
12975SOL     OW50983   3.920   2.164   9.427
12975SOL    HW150984   3.973   2.120   9.355
12975SOL    HW250985   3.969   2.246   9.459
12976SOL     OW50986   4.816   2.540   9.276
12976SOL    HW150987   4.766   2.607   9.221
12976SOL    HW250988   4.882   2.492   9.218
12977SOL     OW50989   4.585   2.475   9.423
12977SOL    HW150990   4.674   2.487   9.379
12977SOL    HW250991   4.571   2.379   9.446
12978SOL     OW50992   5.041   1.989   9.669
12978SOL    HW150993   4.974   1.959   9.737
12978SOL    HW250994   5.043   2.089   9.667
12979SOL     OW50995   3.774   1.923   9.413
12979SOL    HW150996   3.851   1.859   9.424
12979SOL    HW250997   3.808   2.017   9.422
12980SOL     OW50998   5.370   2.896   9.429
12980SOL    HW150999   5.469   2.910   9.433
12980SOL    HW251000   5.340   2.893   9.334
12981SOL     OW51001   4.833   1.940   9.841
12981SOL    HW151002   4.836   1.984   9.931
12981SOL    HW251003   4.766   1.866   9.842
12982SOL     OW51004   3.971   1.918   9.684
12982SOL    HW151005   4.015   1.874   9.762
12982SOL    HW251006   3.875   1.938   9.706
12983SOL     OW51007   3.791   2.969   9.450
12983SOL    HW151008   3.809   2.871   9.440
12983SOL    HW251009   3.809   3.015   9.364
12984SOL     OW51010   4.963   2.463   9.498
12984SOL    HW151011   4.984   2.547   9.548
12984SOL    HW251012   4.908   2.485   9.417
12985SOL     OW51013   4.341   3.044   9.941
12985SOL    HW151014   4.369   3.124   9.993
12985SOL    HW251015   4.379   2.962   9.985
12986SOL     OW51016   4.698   3.315   9.766
12986SOL    HW151017   4.737   3.333   9.675
12986SOL    HW251018   4.642   3.233   9.762
12987SOL     OW51019   4.276   2.747   9.541
12987SOL    HW151020   4.317   2.837   9.530
12987SOL    HW251021   4.180   2.751   9.514
12988SOL     OW51022   3.718   1.991   9.743
12988SOL    HW151023   3.626   1.955   9.729
12988SOL    HW251024   3.723   2.085   9.709
12989SOL     OW51025   4.111   3.356   9.951
12989SOL    HW151026   4.178   3.336   9.879
12989SOL    HW251027   4.034   3.406   9.913
12990SOL     OW51028   4.848   3.047   9.632
12990SOL    HW151029   4.938   3.058   9.675
12990SOL    HW251030   4.798   2.974   9.678
12991SOL     OW51031   5.322   2.290   9.956
12991SOL    HW151032   5.405   2.345   9.964
12991SOL    HW251033   5.288   2.268   0.047
12992SOL     OW51034   4.497   2.926   9.507
12992SOL    HW151035   4.563   2.977   9.453
12992SOL    HW251036   4.536   2.839   9.536
12993SOL     OW51037   4.506   1.956   9.374
12993SOL    HW151038   4.584   1.892   9.373
12993SOL    HW251039   4.537   2.045   9.406
12994SOL     OW51040   4.267   2.385   9.984
12994SOL    HW151041   4.309   2.302   0.020
12994SOL    HW251042   4.325   2.422   9.912
12995SOL     OW51043   3.825   3.104   9.214
12995SOL    HW151044   3.799   3.094   9.119
12995SOL    HW251045   3.854   3.198   9.232
12996SOL     OW51046   4.296   3.614   9.421
12996SOL    HW151047   4.267   3.710   9.417
12996SOL    HW251048   4.361   3.602   9.496
12997SOL     OW51049   3.759   2.751   9.781
12997SOL    HW151050   3.748   2.847   9.755
12997SOL    HW251051   3.677   2.720   9.829
12998SOL     OW51052   5.121   3.058   9.731
12998SOL    HW151053   5.212   3.079   9.767
12998SOL    HW251054   5.124   3.058   9.631
12999SOL     OW51055   4.373   2.148   9.720
12999SOL    HW151056   4.273   2.152   9.715
12999SOL    HW251057   4.402   2.146   9.815
13000SOL     OW51058   5.253   2.020   9.921
13000SOL    HW151059   5.282   1.975   9.837
13000SOL    HW251060   5.289   2.113   9.925
13001SOL     OW51061   5.040   2.332   9.910
13001SOL    HW151062   5.030   2.299   9.816
13001SOL    HW251063   5.136   2.328   9.937
13002SOL     OW51064   4.810   5.119   0.737
13002SOL    HW151065   4.901   5.160   0.746
13002SOL    HW251066   4.798   5.085   0.643
13003SOL     OW51067   5.276   4.973   0.586
13003SOL    HW151068   5.292   5.045   0.654
13003SOL    HW251069   5.363   4.926   0.566
13004SOL     OW51070   5.327   4.371   1.389
13004SOL    HW151071   5.261   4.314   1.437
13004SOL    HW251072   5.381   4.423   1.455
13005SOL     OW51073   4.152   3.922   0.083
13005SOL    HW151074   4.121   3.834   0.046
13005SOL    HW251075   4.230   3.955   0.031
13006SOL     OW51076   5.050   5.240   0.798
13006SOL    HW151077   5.055   5.337   0.821
13006SOL    HW251078   5.142   5.203   0.788
13007SOL     OW51079   4.892   3.779   1.330
13007SOL    HW151080   4.808   3.740   1.367
13007SOL    HW251081   4.935   3.714   1.267
13008SOL     OW51082   4.683   4.567   1.756
13008SOL    HW151083   4.666   4.509   1.677
13008SOL    HW251084   4.597   4.583   1.805
13009SOL     OW51085   4.307   3.756   0.252
13009SOL    HW151086   4.399   3.786   0.227
13009SOL    HW251087   4.240   3.815   0.207
13010SOL     OW51088   5.279   4.750   1.546
13010SOL    HW151089   5.186   4.781   1.526
13010SOL    HW251090   5.340   4.774   1.470
13011SOL     OW51091   5.118   4.763   1.228
13011SOL    HW151092   5.075   4.772   1.318
13011SOL    HW251093   5.176   4.842   1.210
13012SOL     OW51094   4.642   5.028   1.511
13012SOL    HW151095   4.563   5.084   1.487
13012SOL    HW251096   4.672   4.976   1.432
13013SOL     OW51097   4.448   4.347   0.559
13013SOL    HW151098   4.469   4.419   0.492
13013SOL    HW251099   4.411   4.267   0.512
13014SOL     OW51100   4.970   4.221   1.735
13014SOL    HW151101   5.062   4.198   1.768
13014SOL    HW251102   4.912   4.140   1.739
13015SOL     OW51103   4.153   5.101   0.201
13015SOL    HW151104   4.250   5.089   0.184
13015SOL    HW251105   4.132   5.199   0.211
13016SOL     OW51106   4.247   4.001   1.020
13016SOL    HW151107   4.308   4.080   1.014
13016SOL    HW251108   4.289   3.922   0.975
13017SOL     OW51109   4.016   4.495   0.518
13017SOL    HW151110   4.044   4.530   0.607
13017SOL    HW251111   3.922   4.460   0.523
13018SOL     OW51112   4.421   5.405   0.700
13018SOL    HW151113   4.513   5.374   0.721
13018SOL    HW251114   4.418   5.438   0.605
13019SOL     OW51115   5.408   5.276   0.407
13019SOL    HW151116   5.493   5.232   0.378
13019SOL    HW251117   5.373   5.333   0.333
13020SOL     OW51118   5.360   4.022   1.127
13020SOL    HW151119   5.400   4.113   1.142
13020SOL    HW251120   5.260   4.030   1.124
13021SOL     OW51121   4.727   4.025   0.300
13021SOL    HW151122   4.781   4.109   0.299
13021SOL    HW251123   4.731   3.983   0.391
13022SOL     OW51124   3.855   4.689   1.595
13022SOL    HW151125   3.948   4.719   1.618
13022SOL    HW251126   3.810   4.657   1.678
13023SOL     OW51127   4.116   4.394   0.022
13023SOL    HW151128   4.159   4.484   0.028
13023SOL    HW251129   4.182   4.327   9.989
13024SOL     OW51130   4.272   5.285   0.894
13024SOL    HW151131   4.329   5.324   0.822
13024SOL    HW251132   4.253   5.189   0.873
13025SOL     OW51133   4.676   4.340   1.576
13025SOL    HW151134   4.714   4.264   1.629
13025SOL    HW251135   4.747   4.378   1.516
13026SOL     OW51136   5.313   5.141   0.807
13026SOL    HW151137   5.324   5.163   0.904
13026SOL    HW251138   5.371   5.202   0.752
13027SOL     OW51139   3.989   4.913   0.458
13027SOL    HW151140   4.070   4.883   0.509
13027SOL    HW251141   3.967   4.846   0.388
13028SOL     OW51142   4.847   3.922   0.059
13028SOL    HW151143   4.921   3.867   0.098
13028SOL    HW251144   4.798   3.969   0.133
13029SOL     OW51145   4.083   4.250   1.185
13029SOL    HW151146   4.070   4.153   1.204
13029SOL    HW251147   3.994   4.296   1.184
13030SOL     OW51148   5.101   4.485   1.274
13030SOL    HW151149   5.110   4.583   1.257
13030SOL    HW251150   5.188   4.450   1.310
13031SOL     OW51151   4.094   4.001   0.482
13031SOL    HW151152   4.037   4.032   0.558
13031SOL    HW251153   4.049   4.023   0.395
13032SOL     OW51154   5.253   5.435   1.324
13032SOL    HW151155   5.177   5.434   1.259
13032SOL    HW251156   5.340   5.429   1.274
13033SOL     OW51157   5.466   4.269   1.178
13033SOL    HW151158   5.561   4.301   1.181
13033SOL    HW251159   5.416   4.307   1.257
13034SOL     OW51160   5.505   5.426   1.183
13034SOL    HW151161   5.540   5.469   1.266
13034SOL    HW251162   5.580   5.411   1.119
13035SOL     OW51163   4.666   4.188   0.635
13035SOL    HW151164   4.717   4.229   0.711
13035SOL    HW251165   4.597   4.252   0.603
13036SOL     OW51166   4.888   4.668   0.166
13036SOL    HW151167   4.906   4.600   0.237
13036SOL    HW251168   4.791   4.664   0.140
13037SOL     OW51169   4.772   4.028   1.762
13037SOL    HW151170   4.794   4.025   1.859
13037SOL    HW251171   4.676   4.004   1.748
13038SOL     OW51172   5.395   4.404   0.416
13038SOL    HW151173   5.341   4.321   0.428
13038SOL    HW251174   5.474   4.403   0.477
13039SOL     OW51175   4.656   5.505   0.144
13039SOL    HW151176   4.652   5.474   0.049
13039SOL    HW251177   4.686   5.429   0.202
13040SOL     OW51178   4.473   3.780   1.718
13040SOL    HW151179   4.494   3.686   1.691
13040SOL    HW251180   4.474   3.788   1.817
13041SOL     OW51181   5.365   4.364   0.943
13041SOL    HW151182   5.332   4.458   0.953
13041SOL    HW251183   5.396   4.330   1.032
13042SOL     OW51184   4.789   5.015   1.749
13042SOL    HW151185   4.837   4.927   1.739
13042SOL    HW251186   4.730   5.029   1.670
13043SOL     OW51187   4.413   4.853   1.716
13043SOL    HW151188   4.361   4.937   1.703
13043SOL    HW251189   4.428   4.839   1.814
13044SOL     OW51190   5.060   3.653   0.899
13044SOL    HW151191   5.012   3.740   0.903
13044SOL    HW251192   5.148   3.665   0.852
13045SOL     OW51193   5.443   3.913   1.801
13045SOL    HW151194   5.385   3.949   1.874
13045SOL    HW251195   5.505   3.844   1.839
13046SOL     OW51196   3.762   4.415   0.591
13046SOL    HW151197   3.784   4.354   0.668
13046SOL    HW251198   3.720   4.499   0.626
13047SOL     OW51199   4.032   3.905   0.846
13047SOL    HW151200   4.098   3.944   0.910
13047SOL    HW251201   4.070   3.821   0.806
13048SOL     OW51202   4.069   3.954   1.230
13048SOL    HW151203   4.052   3.857   1.241
13048SOL    HW251204   4.134   3.969   1.156
13049SOL     OW51205   4.742   4.516   0.924
13049SOL    HW151206   4.647   4.522   0.895
13049SOL    HW251207   4.779   4.427   0.898
13050SOL     OW51208   3.920   5.180   0.407
13050SOL    HW151209   3.944   5.084   0.424
13050SOL    HW251210   3.983   5.218   0.340
13051SOL     OW51211   5.187   5.040   1.239
13051SOL    HW151212   5.161   5.090   1.156
13051SOL    HW251213   5.116   5.051   1.308
13052SOL     OW51214   3.922   5.347   0.625
13052SOL    HW151215   3.828   5.348   0.658
13052SOL    HW251216   3.931   5.283   0.549
13053SOL     OW51217   5.453   5.072   1.281
13053SOL    HW151218   5.475   5.116   1.367
13053SOL    HW251219   5.354   5.059   1.274
13054SOL     OW51220   4.210   4.652   0.016
13054SOL    HW151221   4.159   4.693   9.940
13054SOL    HW251222   4.204   4.711   0.096
13055SOL     OW51223   4.674   4.839   1.291
13055SOL    HW151224   4.703   4.745   1.272
13055SOL    HW251225   4.598   4.863   1.231
13056SOL     OW51226   3.764   4.481   0.218
13056SOL    HW151227   3.848   4.430   0.237
13056SOL    HW251228   3.692   4.452   0.281
13057SOL     OW51229   5.204   4.600   0.405
13057SOL    HW151230   5.271   4.526   0.414
13057SOL    HW251231   5.225   4.655   0.325
13058SOL     OW51232   4.592   5.498   1.006
13058SOL    HW151233   4.619   5.420   0.950
13058SOL    HW251234   4.524   5.469   1.073
13059SOL     OW51235   4.485   4.636   0.001
13059SOL    HW151236   4.525   4.552   0.039
13059SOL    HW251237   4.385   4.629   0.002
13060SOL     OW51238   5.025   4.101   0.445
13060SOL    HW151239   4.974   4.163   0.384
13060SOL    HW251240   5.115   4.141   0.463
13061SOL     OW51241   3.967   4.309   1.513
13061SOL    HW151242   3.945   4.220   1.473
13061SOL    HW251243   3.933   4.312   1.607
13062SOL     OW51244   3.892   4.051   1.426
13062SOL    HW151245   3.960   4.015   1.361
13062SOL    HW251246   3.801   4.021   1.398
13063SOL     OW51247   4.714   4.580   1.201
13063SOL    HW151248   4.724   4.562   1.103
13063SOL    HW251249   4.631   4.536   1.235
13064SOL     OW51250   5.276   4.173   0.505
13064SOL    HW151251   5.360   4.126   0.478
13064SOL    HW251252   5.271   4.179   0.604
13065SOL     OW51253   4.622   5.266   0.866
13065SOL    HW151254   4.697   5.222   0.815
13065SOL    HW251255   4.574   5.196   0.920
13066SOL     OW51256   4.499   4.183   0.256
13066SOL    HW151257   4.432   4.152   0.323
13066SOL    HW251258   4.580   4.124   0.260
13067SOL     OW51259   4.673   4.977   0.234
13067SOL    HW151260   4.712   4.995   0.325
13067SOL    HW251261   4.724   5.028   0.165
13068SOL     OW51262   5.459   5.322   0.669
13068SOL    HW151263   5.423   5.409   0.703
13068SOL    HW251264   5.434   5.311   0.573
13069SOL     OW51265   4.795   4.645   0.567
13069SOL    HW151266   4.854   4.661   0.646
13069SOL    HW251267   4.702   4.673   0.589
13070SOL     OW51268   4.524   5.321   1.647
13070SOL    HW151269   4.480   5.265   1.577
13070SOL    HW251270   4.522   5.273   1.735
13071SOL     OW51271   4.942   4.672   0.804
13071SOL    HW151272   4.875   4.617   0.854
13071SOL    HW251273   4.951   4.761   0.848
13072SOL     OW51274   4.054   4.840   0.898
13072SOL    HW151275   3.959   4.870   0.888
13072SOL    HW251276   4.069   4.808   0.992
13073SOL     OW51277   4.970   5.095   1.400
13073SOL    HW151278   5.017   5.165   1.454
13073SOL    HW251279   4.889   5.135   1.358
13074SOL     OW51280   3.760   4.045   0.439
13074SOL    HW151281   3.824   4.057   0.363
13074SOL    HW251282   3.808   4.057   0.526
13075SOL     OW51283   5.339   5.462   0.214
13075SOL    HW151284   5.437   5.482   0.218
13075SOL    HW251285   5.307   5.477   0.120
13076SOL     OW51286   4.523   4.471   1.378
13076SOL    HW151287   4.512   4.559   1.425
13076SOL    HW251288   4.573   4.408   1.436
13077SOL     OW51289   3.762   5.530   1.415
13077SOL    HW151290   3.714   5.618   1.416
13077SOL    HW251291   3.750   5.483   1.502
13078SOL     OW51292   4.484   4.527   0.346
13078SOL    HW151293   4.384   4.530   0.339
13078SOL    HW251294   4.522   4.478   0.267
13079SOL     OW51295   4.075   4.337   0.916
13079SOL    HW151296   4.139   4.290   0.855
13079SOL    HW251297   4.091   4.307   1.010
13080SOL     OW51298   4.084   5.370   0.257
13080SOL    HW151299   4.138   5.421   0.190
13080SOL    HW251300   4.092   5.415   0.346
13081SOL     OW51301   5.045   5.414   1.143
13081SOL    HW151302   5.065   5.454   1.054
13081SOL    HW251303   5.024   5.317   1.131
13082SOL     OW51304   3.772   4.902   0.935
13082SOL    HW151305   3.687   4.897   0.882
13082SOL    HW251306   3.768   4.837   1.011
13083SOL     OW51307   4.328   3.744   0.525
13083SOL    HW151308   4.312   3.740   0.426
13083SOL    HW251309   4.359   3.836   0.550
13084SOL     OW51310   3.709   4.847   0.510
13084SOL    HW151311   3.795   4.894   0.529
13084SOL    HW251312   3.710   4.813   0.416
13085SOL     OW51313   5.295   3.979   1.572
13085SOL    HW151314   5.255   4.071   1.578
13085SOL    HW251315   5.345   3.959   1.656
13086SOL     OW51316   4.959   3.912   0.922
13086SOL    HW151317   4.971   3.975   0.845
13086SOL    HW251318   5.004   3.950   1.003
13087SOL     OW51319   5.030   3.769   0.201
13087SOL    HW151320   5.025   3.673   0.174
13087SOL    HW251321   5.001   3.777   0.297
13088SOL     OW51322   5.279   3.700   1.560
13088SOL    HW151323   5.267   3.665   1.467
13088SOL    HW251324   5.282   3.800   1.557
13089SOL     OW51325   4.432   3.997   0.712
13089SOL    HW151326   4.398   3.922   0.769
13089SOL    HW251327   4.528   4.012   0.731
13090SOL     OW51328   4.971   4.303   1.115
13090SOL    HW151329   4.963   4.345   1.025
13090SOL    HW251330   5.015   4.368   1.178
13091SOL     OW51331   5.250   3.746   0.490
13091SOL    HW151332   5.284   3.717   0.401
13091SOL    HW251333   5.156   3.778   0.482
13092SOL     OW51334   4.270   5.091   1.746
13092SOL    HW151335   4.226   5.164   1.693
13092SOL    HW251336   4.352   5.127   1.790
13093SOL     OW51337   4.108   4.782   1.644
13093SOL    HW151338   4.163   4.759   1.564
13093SOL    HW251339   4.117   4.880   1.663
13094SOL     OW51340   3.829   5.110   1.110
13094SOL    HW151341   3.812   5.046   1.035
13094SOL    HW251342   3.755   5.101   1.177
13095SOL     OW51343   4.817   4.263   0.857
13095SOL    HW151344   4.886   4.205   0.813
13095SOL    HW251345   4.777   4.213   0.934
13096SOL     OW51346   5.453   4.329   1.761
13096SOL    HW151347   5.460   4.397   1.688
13096SOL    HW251348   5.527   4.345   1.827
13097SOL     OW51349   5.084   4.054   1.130
13097SOL    HW151350   5.047   4.146   1.121
13097SOL    HW251351   5.073   4.023   1.225
13098SOL     OW51352   5.229   4.171   1.807
13098SOL    HW151353   5.309   4.228   1.786
13098SOL    HW251354   5.249   4.113   1.886
13099SOL     OW51355   4.942   4.509   0.381
13099SOL    HW151356   4.885   4.552   0.451
13099SOL    HW251357   5.037   4.535   0.396
13100SOL     OW51358   5.208   4.666   0.683
13100SOL    HW151359   5.202   4.654   0.584
13100SOL    HW251360   5.116   4.656   0.723
13101SOL     OW51361   5.460   4.535   1.566
13101SOL    HW151362   5.387   4.602   1.554
13101SOL    HW251363   5.549   4.580   1.565
13102SOL     OW51364   5.224   3.961   0.242
13102SOL    HW151365   5.186   4.026   0.308
13102SOL    HW251366   5.154   3.895   0.215
13103SOL     OW51367   4.406   5.182   1.439
13103SOL    HW151368   4.347   5.259   1.414
13103SOL    HW251369   4.376   5.100   1.390
13104SOL     OW51370   3.845   3.999   1.699
13104SOL    HW151371   3.858   4.011   1.601
13104SOL    HW251372   3.748   3.980   1.717
13105SOL     OW51373   3.745   5.388   1.650
13105SOL    HW151374   3.825   5.411   1.705
13105SOL    HW251375   3.663   5.394   1.707
13106SOL     OW51376   3.900   4.061   0.672
13106SOL    HW151377   3.867   4.141   0.722
13106SOL    HW251378   3.946   3.999   0.735
13107SOL     OW51379   5.105   5.298   1.519
13107SOL    HW151380   5.032   5.357   1.554
13107SOL    HW251381   5.158   5.348   1.450
13108SOL     OW51382   3.995   4.335   0.262
13108SOL    HW151383   4.043   4.360   0.178
13108SOL    HW251384   4.036   4.382   0.340
13109SOL     OW51385   5.476   3.934   1.365
13109SOL    HW151386   5.409   3.957   1.436
13109SOL    HW251387   5.437   3.953   1.275
13110SOL     OW51388   4.044   5.434   0.853
13110SOL    HW151389   4.004   5.400   0.768
13110SOL    HW251390   4.128   5.384   0.872
13111SOL     OW51391   4.054   5.014   1.242
13111SOL    HW151392   4.046   5.038   1.338
13111SOL    HW251393   3.982   5.059   1.190
13112SOL     OW51394   4.856   5.276   1.828
13112SOL    HW151395   4.832   5.183   1.802
13112SOL    HW251396   4.871   5.331   1.746
13113SOL     OW51397   4.055   4.580   0.777
13113SOL    HW151398   4.080   4.668   0.818
13113SOL    HW251399   4.084   4.505   0.837
13114SOL     OW51400   3.972   4.063   0.244
13114SOL    HW151401   4.042   4.023   0.184
13114SOL    HW251402   3.980   4.162   0.242
13115SOL     OW51403   3.817   4.273   0.818
13115SOL    HW151404   3.739   4.311   0.868
13115SOL    HW251405   3.902   4.301   0.863
13116SOL     OW51406   4.215   4.820   0.237
13116SOL    HW151407   4.310   4.824   0.269
13116SOL    HW251408   4.176   4.912   0.239
13117SOL     OW51409   4.844   4.321   0.002
13117SOL    HW151410   4.842   4.401   9.942
13117SOL    HW251411   4.928   4.269   9.986
13118SOL     OW51412   4.590   4.403   0.119
13118SOL    HW151413   4.678   4.377   0.078
13118SOL    HW251414   4.546   4.321   0.156
13119SOL     OW51415   4.984   3.835   0.465
13119SOL    HW151416   4.895   3.824   0.509
13119SOL    HW251417   5.005   3.932   0.456
13120SOL     OW51418   5.136   4.220   1.505
13120SOL    HW151419   5.075   4.249   1.579
13120SOL    HW251420   5.092   4.147   1.453
13121SOL     OW51421   3.807   3.894   0.092
13121SOL    HW151422   3.798   3.802   0.132
13121SOL    HW251423   3.870   3.948   0.147
13122SOL     OW51424   4.042   4.752   1.169
13122SOL    HW151425   4.068   4.688   1.241
13122SOL    HW251426   4.052   4.846   1.202
13123SOL     OW51427   5.308   4.717   0.173
13123SOL    HW151428   5.396   4.750   0.208
13123SOL    HW251429   5.322   4.673   0.084
13124SOL     OW51430   4.332   4.387   1.188
13124SOL    HW151431   4.377   4.412   1.273
13124SOL    HW251432   4.242   4.347   1.207
13125SOL     OW51433   4.518   4.713   1.508
13125SOL    HW151434   4.582   4.772   1.457
13125SOL    HW251435   4.488   4.760   1.590
13126SOL     OW51436   4.874   4.752   1.688
13126SOL    HW151437   4.790   4.700   1.703
13126SOL    HW251438   4.953   4.692   1.702
13127SOL     OW51439   4.734   3.934   0.568
13127SOL    HW151440   4.715   4.031   0.585
13127SOL    HW251441   4.717   3.882   0.652
13128SOL     OW51442   4.897   5.446   1.617
13128SOL    HW151443   4.820   5.464   1.556
13128SOL    HW251444   4.930   5.532   1.655
13129SOL     OW51445   4.342   3.795   0.869
13129SOL    HW151446   4.277   3.733   0.826
13129SOL    HW251447   4.420   3.742   0.904
13130SOL     OW51448   4.000   5.520   1.280
13130SOL    HW151449   3.973   5.471   1.196
13130SOL    HW251450   3.921   5.526   1.341
13131SOL     OW51451   4.690   4.960   0.929
13131SOL    HW151452   4.729   5.010   0.852
13131SOL    HW251453   4.762   4.934   0.993
13132SOL     OW51454   4.417   4.600   1.027
13132SOL    HW151455   4.436   4.551   0.942
13132SOL    HW251456   4.376   4.538   1.093
13133SOL     OW51457   3.773   4.714   1.133
13133SOL    HW151458   3.870   4.722   1.158
13133SOL    HW251459   3.763   4.649   1.058
13134SOL     OW51460   3.998   3.739   0.443
13134SOL    HW151461   4.048   3.822   0.469
13134SOL    HW251462   3.904   3.745   0.477
13135SOL     OW51463   4.401   4.332   1.667
13135SOL    HW151464   4.342   4.368   1.595
13135SOL    HW251465   4.496   4.331   1.634
13136SOL     OW51466   3.771   4.759   0.249
13136SOL    HW151467   3.781   4.662   0.228
13136SOL    HW251468   3.828   4.813   0.187
13137SOL     OW51469   5.385   3.934   0.865
13137SOL    HW151470   5.386   3.952   0.964
13137SOL    HW251471   5.477   3.947   0.828
13138SOL     OW51472   4.485   4.860   1.089
13138SOL    HW151473   4.455   4.768   1.063
13138SOL    HW251474   4.546   4.896   1.018
13139SOL     OW51475   4.876   4.261   0.277
13139SOL    HW151476   4.893   4.348   0.322
13139SOL    HW251477   4.869   4.275   0.179
13140SOL     OW51478   5.266   5.156   1.681
13140SOL    HW151479   5.228   5.072   1.720
13140SOL    HW251480   5.198   5.200   1.623
13141SOL     OW51481   3.934   4.543   1.373
13141SOL    HW151482   3.947   4.456   1.419
13141SOL    HW251483   3.901   4.611   1.439
13142SOL     OW51484   4.426   5.077   0.164
13142SOL    HW151485   4.421   5.176   0.180
13142SOL    HW251486   4.515   5.043   0.196
13143SOL     OW51487   4.380   5.383   1.133
13143SOL    HW151488   4.332   5.344   1.054
13143SOL    HW251489   4.320   5.383   1.212
13144SOL     OW51490   3.807   4.564   0.907
13144SOL    HW151491   3.894   4.568   0.858
13144SOL    HW251492   3.733   4.588   0.844
13145SOL     OW51493   3.717   4.597   1.804
13145SOL    HW151494   3.617   4.604   1.805
13145SOL    HW251495   3.749   4.559   1.890
13146SOL     OW51496   4.663   5.461   1.453
13146SOL    HW151497   4.622   5.406   1.526
13146SOL    HW251498   4.598   5.531   1.423
13147SOL     OW51499   4.888   4.901   1.115
13147SOL    HW151500   4.819   4.896   1.187
13147SOL    HW251501   4.967   4.844   1.139
13148SOL     OW51502   4.225   4.091   1.791
13148SOL    HW151503   4.293   4.082   1.718
13148SOL    HW251504   4.222   4.186   1.822
13149SOL     OW51505   4.216   4.566   0.349
13149SOL    HW151506   4.200   4.658   0.313
13149SOL    HW251507   4.144   4.544   0.415
13150SOL     OW51508   5.282   4.623   1.009
13150SOL    HW151509   5.304   4.704   0.955
13150SOL    HW251510   5.227   4.649   1.088
13151SOL     OW51511   5.060   3.980   1.392
13151SOL    HW151512   5.130   3.946   1.456
13151SOL    HW251513   4.993   3.908   1.376
13152SOL     OW51514   3.717   3.776   0.469
13152SOL    HW151515   3.622   3.751   0.487
13152SOL    HW251516   3.725   3.875   0.460
13153SOL     OW51517   4.916   3.789   1.785
13153SOL    HW151518   4.985   3.804   1.856
13153SOL    HW251519   4.874   3.876   1.759
13154SOL     OW51520   4.136   5.300   1.622
13154SOL    HW151521   4.080   5.360   1.679
13154SOL    HW251522   4.171   5.352   1.544
13155SOL     OW51523   5.494   5.174   1.532
13155SOL    HW151524   5.541   5.259   1.557
13155SOL    HW251525   5.410   5.165   1.585
13156SOL     OW51526   4.724   4.163   1.100
13156SOL    HW151527   4.802   4.218   1.132
13156SOL    HW251528   4.731   4.071   1.139
13157SOL     OW51529   4.767   5.248   1.291
13157SOL    HW151530   4.721   5.314   1.351
13157SOL    HW251531   4.740   5.265   1.196
13158SOL     OW51532   3.975   5.463   1.793
13158SOL    HW151533   3.996   5.561   1.791
13158SOL    HW251534   3.969   5.432   1.887
13159SOL     OW51535   3.826   4.968   1.650
13159SOL    HW151536   3.812   4.873   1.621
13159SOL    HW251537   3.753   5.025   1.613
13160SOL     OW51538   3.885   5.378   1.069
13160SOL    HW151539   3.873   5.279   1.078
13160SOL    HW251540   3.938   5.398   0.987
13161SOL     OW51541   4.695   3.863   0.836
13161SOL    HW151542   4.786   3.876   0.875
13161SOL    HW251543   4.643   3.798   0.892
13162SOL     OW51544   4.758   4.976   0.502
13162SOL    HW151545   4.848   4.937   0.520
13162SOL    HW251546   4.687   4.917   0.540
13163SOL     OW51547   5.258   4.167   0.778
13163SOL    HW151548   5.291   4.244   0.834
13163SOL    HW251549   5.301   4.082   0.810
13164SOL     OW51550   4.477   4.801   0.323
13164SOL    HW151551   4.552   4.850   0.278
13164SOL    HW251552   4.496   4.703   0.323
13165SOL     OW51553   4.553   3.839   0.177
13165SOL    HW151554   4.602   3.757   0.149
13165SOL    HW251555   4.615   3.902   0.223
13166SOL     OW51556   4.258   4.223   0.750
13166SOL    HW151557   4.309   4.137   0.754
13166SOL    HW251558   4.296   4.282   0.680
13167SOL     OW51559   4.258   4.727   1.421
13167SOL    HW151560   4.348   4.704   1.457
13167SOL    HW251561   4.264   4.812   1.368
13168SOL     OW51562   5.447   4.801   1.339
13168SOL    HW151563   5.460   4.897   1.316
13168SOL    HW251564   5.491   4.744   1.270
13169SOL     OW51565   3.934   4.953   0.113
13169SOL    HW151566   3.849   5.004   0.097
13169SOL    HW251567   4.002   5.013   0.153
13170SOL     OW51568   4.391   5.335   0.221
13170SOL    HW151569   4.356   5.404   0.157
13170SOL    HW251570   4.405   5.378   0.310
13171SOL     OW51571   5.021   4.837   1.472
13171SOL    HW151572   4.961   4.804   1.545
13171SOL    HW251573   4.997   4.932   1.450
13172SOL     OW51574   4.239   5.421   1.383
13172SOL    HW151575   4.301   5.498   1.397
13172SOL    HW251576   4.153   5.454   1.346
13173SOL     OW51577   3.866   4.265   1.772
13173SOL    HW151578   3.869   4.166   1.759
13173SOL    HW251579   3.923   4.290   1.851
13174SOL     OW51580   5.366   5.219   1.058
13174SOL    HW151581   5.398   5.311   1.081
13174SOL    HW251582   5.397   5.154   1.127
13175SOL     OW51583   3.645   4.639   0.686
13175SOL    HW151584   3.673   4.717   0.629
13175SOL    HW251585   3.546   4.638   0.694
13176SOL     OW51586   4.221   4.432   1.486
13176SOL    HW151587   4.132   4.387   1.493
13176SOL    HW251588   4.209   4.526   1.455
13177SOL     OW51589   5.318   4.858   0.859
13177SOL    HW151590   5.304   4.955   0.842
13177SOL    HW251591   5.279   4.805   0.784
13178SOL     OW51592   4.455   4.211   1.018
13178SOL    HW151593   4.548   4.193   1.048
13178SOL    HW251594   4.411   4.276   1.081
13179SOL     OW51595   4.321   4.966   1.283
13179SOL    HW151596   4.230   4.992   1.252
13179SOL    HW251597   4.375   4.934   1.206
13180SOL     OW51598   3.853   4.405   1.149
13180SOL    HW151599   3.876   4.467   1.224
13180SOL    HW251600   3.844   4.456   1.064
13181SOL     OW51601   4.031   5.074   1.503
13181SOL    HW151602   4.068   5.157   1.546
13181SOL    HW251603   3.957   5.037   1.560
13182SOL     OW51604   5.355   5.402   1.774
13182SOL    HW151605   5.325   5.308   1.759
13182SOL    HW251606   5.323   5.460   1.700
13183SOL     OW51607   5.017   4.902   0.542
13183SOL    HW151608   5.109   4.927   0.573
13183SOL    HW251609   5.021   4.868   0.448
13184SOL     OW51610   4.349   4.101   0.474
13184SOL    HW151611   4.255   4.068   0.468
13184SOL    HW251612   4.392   4.063   0.557
13185SOL     OW51613   5.286   3.703   0.755
13185SOL    HW151614   5.262   3.723   0.660
13185SOL    HW251615   5.321   3.785   0.799
13186SOL     OW51616   4.852   4.448   1.402
13186SOL    HW151617   4.950   4.450   1.386
13186SOL    HW251618   4.805   4.500   1.331
13187SOL     OW51619   4.489   4.425   0.827
13187SOL    HW151620   4.468   4.342   0.879
13187SOL    HW251621   4.474   4.407   0.730
13188SOL     OW51622   5.004   5.153   1.058
13188SOL    HW151623   4.953   5.068   1.073
13188SOL    HW251624   5.007   5.173   0.960
13189SOL     OW51625   4.999   4.105   0.730
13189SOL    HW151626   4.985   4.097   0.631
13189SOL    HW251627   5.093   4.132   0.749
13190SOL     OW51628   4.893   5.121   2.611
13190SOL    HW151629   4.967   5.187   2.608
13190SOL    HW251630   4.827   5.140   2.538
13191SOL     OW51631   5.319   4.977   2.376
13191SOL    HW151632   5.328   5.027   2.462
13191SOL    HW251633   5.406   4.933   2.354
13192SOL     OW51634   5.427   4.238   3.252
13192SOL    HW151635   5.330   4.260   3.261
13192SOL    HW251636   5.472   4.248   3.341
13193SOL     OW51637   4.050   3.898   1.845
13193SOL    HW151638   3.969   3.920   1.791
13193SOL    HW251639   4.124   3.963   1.824
13194SOL     OW51640   5.112   5.280   2.652
13194SOL    HW151641   5.127   5.378   2.663
13194SOL    HW251642   5.196   5.237   2.619
13195SOL     OW51643   4.224   3.733   1.986
13195SOL    HW151644   4.317   3.770   1.991
13195SOL    HW251645   4.167   3.796   1.933
13196SOL     OW51646   5.307   4.730   3.366
13196SOL    HW151647   5.210   4.730   3.344
13196SOL    HW251648   5.359   4.770   3.291
13197SOL     OW51649   5.200   4.686   3.067
13197SOL    HW151650   5.132   4.720   3.132
13197SOL    HW251651   5.289   4.728   3.086
13198SOL     OW51652   4.409   4.303   2.399
13198SOL    HW151653   4.436   4.383   2.345
13198SOL    HW251654   4.391   4.226   2.338
13199SOL     OW51655   5.056   4.156   3.680
13199SOL    HW151656   5.154   4.175   3.675
13199SOL    HW251657   5.037   4.071   3.630
13200SOL     OW51658   4.133   5.083   1.985
13200SOL    HW151659   4.179   5.076   1.897
13200SOL    HW251660   4.172   5.158   2.038
13201SOL     OW51661   4.229   3.989   2.843
13201SOL    HW151662   4.277   4.076   2.852
13201SOL    HW251663   4.295   3.918   2.817
13202SOL     OW51664   4.000   4.450   2.337
13202SOL    HW151665   4.039   4.449   2.429
13202SOL    HW251666   3.900   4.459   2.343
13203SOL     OW51667   4.626   5.437   2.461
13203SOL    HW151668   4.654   5.342   2.453
13203SOL    HW251669   4.552   5.455   2.396
13204SOL     OW51670   5.521   5.366   2.237
13204SOL    HW151671   5.596   5.304   2.215
13204SOL    HW251672   5.473   5.391   2.152
13205SOL     OW51673   5.327   4.040   2.899
13205SOL    HW151674   5.386   4.113   2.934
13205SOL    HW251675   5.240   4.040   2.949
13206SOL     OW51676   4.753   4.089   2.246
13206SOL    HW151677   4.807   4.173   2.237
13206SOL    HW251678   4.770   4.048   2.336
13207SOL     OW51679   3.841   4.689   3.409
13207SOL    HW151680   3.935   4.721   3.414
13207SOL    HW251681   3.812   4.656   3.499
13208SOL     OW51682   4.215   4.363   1.864
13208SOL    HW151683   4.191   4.460   1.868
13208SOL    HW251684   4.290   4.350   1.799
13209SOL     OW51685   5.347   5.114   2.620
13209SOL    HW151686   5.350   5.131   2.719
13209SOL    HW251687   5.397   5.187   2.573
13210SOL     OW51688   4.863   3.996   2.011
13210SOL    HW151689   4.938   3.932   2.028
13210SOL    HW251690   4.823   4.024   2.098
13211SOL     OW51691   4.080   4.195   3.132
13211SOL    HW151692   4.073   4.095   3.123
13211SOL    HW251693   3.995   4.237   3.099
13212SOL     OW51694   5.065   4.444   3.090
13212SOL    HW151695   5.123   4.522   3.068
13212SOL    HW251696   5.107   4.391   3.164
13213SOL     OW51697   4.072   3.972   2.303
13213SOL    HW151698   4.035   4.022   2.381
13213SOL    HW251699   4.029   4.005   2.218
13214SOL     OW51700   5.488   4.248   2.991
13214SOL    HW151701   5.578   4.292   2.984
13214SOL    HW251702   5.459   4.246   3.086
13215SOL     OW51703   4.622   4.232   2.558
13215SOL    HW151704   4.693   4.302   2.555
13215SOL    HW251705   4.549   4.257   2.494
13216SOL     OW51706   4.944   4.700   1.997
13216SOL    HW151707   4.964   4.642   2.076
13216SOL    HW251708   4.878   4.654   1.938
13217SOL     OW51709   4.725   3.916   3.588
13217SOL    HW151710   4.753   3.959   3.674
13217SOL    HW251711   4.652   3.970   3.546
13218SOL     OW51712   5.473   4.366   2.188
13218SOL    HW151713   5.420   4.285   2.210
13218SOL    HW251714   5.538   4.385   2.261
13219SOL     OW51715   4.684   5.464   1.977
13219SOL    HW151716   4.716   5.410   1.899
13219SOL    HW251717   4.718   5.423   2.061
13220SOL     OW51718   5.401   4.355   2.748
13220SOL    HW151719   5.355   4.443   2.761
13220SOL    HW251720   5.422   4.315   2.838
13221SOL     OW51721   4.837   5.018   3.662
13221SOL    HW151722   4.927   4.973   3.658
13221SOL    HW251723   4.788   5.001   3.576
13222SOL     OW51724   5.058   3.767   2.555
13222SOL    HW151725   5.032   3.806   2.643
13222SOL    HW251726   5.150   3.729   2.560
13223SOL     OW51727   5.468   3.841   3.586
13223SOL    HW151728   5.463   3.855   3.685
13223SOL    HW251729   5.505   3.750   3.568
13224SOL     OW51730   3.717   4.424   2.432
13224SOL    HW151731   3.745   4.363   2.507
13224SOL    HW251732   3.643   4.483   2.464
13225SOL     OW51733   4.045   3.891   2.650
13225SOL    HW151734   4.102   3.930   2.722
13225SOL    HW251735   4.095   3.818   2.604
13226SOL     OW51736   4.075   3.919   3.069
13226SOL    HW151737   4.078   3.820   3.086
13226SOL    HW251738   4.129   3.940   2.987
13227SOL     OW51739   5.156   5.145   3.132
13227SOL    HW151740   5.094   5.152   3.054
13227SOL    HW251741   5.108   5.176   3.215
13228SOL     OW51742   3.894   5.382   2.596
13228SOL    HW151743   3.856   5.462   2.550
13228SOL    HW251744   3.855   5.298   2.557
13229SOL     OW51745   5.423   5.085   3.135
13229SOL    HW151746   5.462   5.102   3.226
13229SOL    HW251747   5.325   5.104   3.137
13230SOL     OW51748   4.186   4.633   1.867
13230SOL    HW151749   4.158   4.681   1.784
13230SOL    HW251750   4.174   4.694   1.946
13231SOL     OW51751   3.797   4.490   2.042
13231SOL    HW151752   3.880   4.435   2.046
13231SOL    HW251753   3.724   4.442   2.091
13232SOL     OW51754   5.287   4.568   2.241
13232SOL    HW151755   5.355   4.497   2.221
13232SOL    HW251756   5.298   4.644   2.177
13233SOL     OW51757   4.613   5.554   2.762
13233SOL    HW151758   4.629   5.488   2.689
13233SOL    HW251759   4.639   5.514   2.850
13234SOL     OW51760   4.459   4.576   1.910
13234SOL    HW151761   4.474   4.485   1.947
13234SOL    HW251762   4.362   4.589   1.889
13235SOL     OW51763   5.071   4.121   2.278
13235SOL    HW151764   5.019   4.187   2.223
13235SOL    HW251765   5.169   4.140   2.268
13236SOL     OW51766   3.853   3.843   3.236
13236SOL    HW151767   3.919   3.892   3.179
13236SOL    HW251768   3.763   3.884   3.225
13237SOL     OW51769   4.650   4.483   3.043
13237SOL    HW151770   4.703   4.415   2.992
13237SOL    HW251771   4.573   4.513   2.986
13238SOL     OW51772   5.350   4.133   2.282
13238SOL    HW151773   5.439   4.092   2.264
13238SOL    HW251774   5.339   4.146   2.381
13239SOL     OW51775   4.521   4.078   2.108
13239SOL    HW151776   4.449   4.053   2.173
13239SOL    HW251777   4.609   4.079   2.156
13240SOL     OW51778   4.665   5.010   2.005
13240SOL    HW151779   4.718   4.996   2.088
13240SOL    HW251780   4.726   5.008   1.926
13241SOL     OW51781   5.450   5.328   2.496
13241SOL    HW151782   5.414   5.415   2.528
13241SOL    HW251783   5.466   5.332   2.398
13242SOL     OW51784   4.885   4.544   2.446
13242SOL    HW151785   4.933   4.577   2.527
13242SOL    HW251786   4.810   4.607   2.424
13243SOL     OW51787   4.473   5.358   3.509
13243SOL    HW151788   4.379   5.326   3.495
13243SOL    HW251789   4.515   5.307   3.584
13244SOL     OW51790   5.047   4.640   2.648
13244SOL    HW151791   5.108   4.601   2.717
13244SOL    HW251792   5.026   4.735   2.672
13245SOL     OW51793   4.671   4.694   2.339
13245SOL    HW151794   4.618   4.624   2.292
13245SOL    HW251795   4.614   4.740   2.406
13246SOL     OW51796   3.748   4.037   2.263
13246SOL    HW151797   3.812   4.054   2.188
13246SOL    HW251798   3.795   4.048   2.350
13247SOL     OW51799   5.382   5.505   2.025
13247SOL    HW151800   5.469   5.555   2.029
13247SOL    HW251801   5.376   5.457   1.938
13248SOL     OW51802   4.497   4.417   3.263
13248SOL    HW151803   4.534   4.459   3.346
13248SOL    HW251804   4.556   4.438   3.185
13249SOL     OW51805   3.748   5.496   3.241
13249SOL    HW151806   3.689   5.576   3.245
13249SOL    HW251807   3.751   5.453   3.332
13250SOL     OW51808   4.487   4.509   2.235
13250SOL    HW151809   4.393   4.541   2.222
13250SOL    HW251810   4.516   4.456   2.155
13251SOL     OW51811   4.021   4.205   2.741
13251SOL    HW151812   4.079   4.171   2.667
13251SOL    HW251813   4.052   4.167   2.828
13252SOL     OW51814   3.992   5.495   2.085
13252SOL    HW151815   4.080   5.521   2.045
13252SOL    HW251816   3.998   5.499   2.185
13253SOL     OW51817   4.984   5.453   2.931
13253SOL    HW151818   5.039   5.496   2.859
13253SOL    HW251819   4.988   5.353   2.921
13254SOL     OW51820   3.611   4.896   2.829
13254SOL    HW151821   3.545   4.853   2.767
13254SOL    HW251822   3.657   4.826   2.883
13255SOL     OW51823   4.366   3.716   2.307
13255SOL    HW151824   4.405   3.657   2.236
13255SOL    HW251825   4.380   3.812   2.282
13256SOL     OW51826   5.314   4.017   3.445
13256SOL    HW151827   5.311   4.090   3.513
13256SOL    HW251828   5.365   3.939   3.482
13257SOL     OW51829   4.999   3.939   2.774
13257SOL    HW151830   5.033   4.007   2.709
13257SOL    HW251831   5.032   3.962   2.866
13258SOL     OW51832   5.076   3.801   2.024
13258SOL    HW151833   5.098   3.706   2.000
13258SOL    HW251834   5.060   3.807   2.122
13259SOL     OW51835   4.433   4.016   2.559
13259SOL    HW151836   4.433   3.943   2.627
13259SOL    HW251837   4.511   4.076   2.574
13260SOL     OW51838   4.895   4.265   2.968
13260SOL    HW151839   4.896   4.271   2.869
13260SOL    HW251840   4.956   4.335   3.006
13261SOL     OW51841   5.314   3.754   2.269
13261SOL    HW151842   5.330   3.716   2.178
13261SOL    HW251843   5.221   3.791   2.274
13262SOL     OW51844   4.094   4.786   3.380
13262SOL    HW151845   4.129   4.784   3.286
13262SOL    HW251846   4.093   4.880   3.413
13263SOL     OW51847   3.734   5.127   2.920
13263SOL    HW151848   3.699   5.050   2.867
13263SOL    HW251849   3.687   5.131   3.008
13264SOL     OW51850   4.868   4.241   2.702
13264SOL    HW151851   4.939   4.207   2.640
13264SOL    HW251852   4.781   4.200   2.678
13265SOL     OW51853   5.529   4.309   3.516
13265SOL    HW151854   5.523   4.396   3.467
13265SOL    HW251855   5.625   4.286   3.531
13266SOL     OW51856   5.073   4.053   3.028
13266SOL    HW151857   5.008   4.127   3.010
13266SOL    HW251858   5.078   4.035   3.126
13267SOL     OW51859   5.329   4.188   3.658
13267SOL    HW151860   5.406   4.235   3.615
13267SOL    HW251861   5.362   4.118   3.720
13268SOL     OW51862   5.016   4.542   2.212
13268SOL    HW151863   4.968   4.545   2.300
13268SOL    HW251864   5.114   4.551   2.228
13269SOL     OW51865   5.281   4.657   2.499
13269SOL    HW151866   5.279   4.627   2.403
13269SOL    HW251867   5.190   4.645   2.540
13270SOL     OW51868   5.517   4.539   3.372
13270SOL    HW151869   5.436   4.594   3.351
13270SOL    HW251870   5.598   4.598   3.376
13271SOL     OW51871   5.282   3.996   2.013
13271SOL    HW151872   5.304   4.028   2.105
13271SOL    HW251873   5.211   3.926   2.017
13272SOL     OW51874   3.744   5.384   3.499
13272SOL    HW151875   3.830   5.406   3.546
13272SOL    HW251876   3.669   5.386   3.565
13273SOL     OW51877   3.878   4.052   2.499
13273SOL    HW151878   3.840   4.127   2.553
13273SOL    HW251879   3.934   3.994   2.559
13274SOL     OW51880   5.035   5.261   3.371
13274SOL    HW151881   4.962   5.281   3.435
13274SOL    HW251882   5.042   5.334   3.303
13275SOL     OW51883   4.022   4.317   2.063
13275SOL    HW151884   4.101   4.335   2.005
13275SOL    HW251885   4.037   4.357   2.153
13276SOL     OW51886   4.148   5.505   2.594
13276SOL    HW151887   4.076   5.442   2.623
13276SOL    HW251888   4.136   5.526   2.497
13277SOL     OW51889   4.911   5.278   3.711
13277SOL    HW151890   4.875   5.186   3.700
13277SOL    HW251891   4.876   5.337   3.638
13278SOL     OW51892   4.083   4.440   2.606
13278SOL    HW151893   4.181   4.449   2.624
13278SOL    HW251894   4.048   4.357   2.650
13279SOL     OW51895   3.945   4.050   2.066
13279SOL    HW151896   3.990   4.000   1.992
13279SOL    HW251897   3.969   4.146   2.061
13280SOL     OW51898   3.768   4.263   2.649
13280SOL    HW151899   3.693   4.296   2.707
13280SOL    HW251900   3.852   4.255   2.703
13281SOL     OW51901   4.194   4.816   2.076
13281SOL    HW151902   4.290   4.831   2.055
13281SOL    HW251903   4.143   4.902   2.065
13282SOL     OW51904   4.807   4.368   1.898
13282SOL    HW151905   4.769   4.447   1.849
13282SOL    HW251906   4.872   4.320   1.839
13283SOL     OW51907   4.556   4.342   2.024
13283SOL    HW151908   4.648   4.345   1.983
13283SOL    HW251909   4.532   4.247   2.043
13284SOL     OW51910   5.058   3.850   2.290
13284SOL    HW151911   5.036   3.814   2.381
13284SOL    HW251912   5.050   3.949   2.290
13285SOL     OW51913   5.162   4.307   3.304
13285SOL    HW151914   5.154   4.360   3.388
13285SOL    HW251915   5.119   4.217   3.317
13286SOL     OW51916   3.776   3.794   2.001
13286SOL    HW151917   3.846   3.727   2.024
13286SOL    HW251918   3.805   3.884   2.031
13287SOL     OW51919   3.990   4.695   3.028
13287SOL    HW151920   3.993   4.628   3.103
13287SOL    HW251921   4.042   4.777   3.054
13288SOL     OW51922   5.316   4.755   2.051
13288SOL    HW151923   5.404   4.801   2.054
13288SOL    HW251924   5.288   4.743   1.955
13289SOL     OW51925   4.307   4.341   3.079
13289SOL    HW151926   4.364   4.362   3.159
13289SOL    HW251927   4.225   4.291   3.109
13290SOL     OW51928   4.813   3.975   2.490
13290SOL    HW151929   4.905   3.989   2.526
13290SOL    HW251930   4.761   3.919   2.554
13291SOL     OW51931   4.827   5.418   3.489
13291SOL    HW151932   4.760   5.431   3.416
13291SOL    HW251933   4.849   5.506   3.531
13292SOL     OW51934   4.442   3.832   2.763
13292SOL    HW151935   4.417   3.743   2.801
13292SOL    HW251936   4.540   3.847   2.774
13293SOL     OW51937   3.976   5.512   3.081
13293SOL    HW151938   3.957   5.453   3.003
13293SOL    HW251939   3.901   5.505   3.147
13294SOL     OW51940   4.419   4.525   2.903
13294SOL    HW151941   4.394   4.501   2.809
13294SOL    HW251942   4.363   4.472   2.966
13295SOL     OW51943   3.720   4.693   2.981
13295SOL    HW151944   3.817   4.708   3.000
13295SOL    HW251945   3.708   4.606   2.933
13296SOL     OW51946   3.964   3.719   2.336
13296SOL    HW151947   4.006   3.809   2.332
13296SOL    HW251948   3.865   3.728   2.350
13297SOL     OW51949   3.743   4.772   2.072
13297SOL    HW151950   3.785   4.681   2.069
13297SOL    HW251951   3.802   4.837   2.023
13298SOL     OW51952   5.437   3.930   2.675
13298SOL    HW151953   5.395   3.959   2.761
13298SOL    HW251954   5.536   3.921   2.687
13299SOL     OW51955   4.912   4.300   2.146
13299SOL    HW151956   4.948   4.388   2.177
13299SOL    HW251957   4.871   4.311   2.056
13300SOL     OW51958   5.237   5.157   3.527
13300SOL    HW151959   5.202   5.076   3.575
13300SOL    HW251960   5.165   5.194   3.468
13301SOL     OW51961   3.962   4.511   3.234
13301SOL    HW151962   4.035   4.465   3.285
13301SOL    HW251963   3.910   4.570   3.296
13302SOL     OW51964   4.483   5.191   1.888
13302SOL    HW151965   4.430   5.239   1.958
13302SOL    HW251966   4.547   5.129   1.932
13303SOL     OW51967   4.729   5.181   2.392
13303SOL    HW151968   4.763   5.239   2.318
13303SOL    HW251969   4.723   5.086   2.360
13304SOL     OW51970   3.924   4.513   2.831
13304SOL    HW151971   3.972   4.510   2.743
13304SOL    HW251972   3.960   4.588   2.886
13305SOL     OW51973   3.719   4.593   3.634
13305SOL    HW151974   3.624   4.623   3.630
13305SOL    HW251975   3.738   4.552   3.723
13306SOL     OW51976   4.621   5.472   3.295
13306SOL    HW151977   4.568   5.419   3.360
13306SOL    HW251978   4.569   5.554   3.268
13307SOL     OW51979   5.019   4.901   2.717
13307SOL    HW151980   4.965   4.970   2.670
13307SOL    HW251981   5.091   4.945   2.771
13308SOL     OW51982   4.222   4.576   2.213
13308SOL    HW151983   4.203   4.666   2.173
13308SOL    HW251984   4.140   4.543   2.260
13309SOL     OW51985   5.278   4.606   2.815
13309SOL    HW151986   5.318   4.687   2.773
13309SOL    HW251987   5.247   4.627   2.907
13310SOL     OW51988   5.078   4.042   3.318
13310SOL    HW151989   5.173   4.027   3.347
13310SOL    HW251990   5.016   3.994   3.380
13311SOL     OW51991   3.697   3.777   2.334
13311SOL    HW151992   3.599   3.755   2.334
13311SOL    HW251993   3.709   3.873   2.308
13312SOL     OW51994   5.003   3.911   3.570
13312SOL    HW151995   5.052   3.853   3.635
13312SOL    HW251996   4.906   3.890   3.573
13313SOL     OW51997   4.130   5.314   3.455
13313SOL    HW151998   4.074   5.358   3.525
13313SOL    HW251999   4.152   5.381   3.383
13314SOL     OW52000   5.483   5.124   3.403
13314SOL    HW152001   5.539   5.201   3.435
13314SOL    HW252002   5.393   5.129   3.445
13315SOL     OW52003   4.657   4.123   2.901
13315SOL    HW152004   4.739   4.166   2.938
13315SOL    HW252005   4.681   4.034   2.862
13316SOL     OW52006   4.706   5.455   3.002
13316SOL    HW152007   4.685   5.448   3.099
13316SOL    HW252008   4.806   5.457   2.990
13317SOL     OW52009   3.972   5.446   3.650
13317SOL    HW152010   3.997   5.542   3.650
13317SOL    HW252011   3.976   5.410   3.743
13318SOL     OW52012   3.833   4.968   3.485
13318SOL    HW152013   3.814   4.876   3.449
13318SOL    HW252014   3.760   5.030   3.459
13319SOL     OW52015   3.880   5.355   2.871
13319SOL    HW152016   3.837   5.266   2.890
13319SOL    HW252017   3.891   5.367   2.773
13320SOL     OW52018   4.730   3.878   2.784
13320SOL    HW152019   4.828   3.895   2.780
13320SOL    HW252020   4.712   3.794   2.835
13321SOL     OW52021   4.780   4.939   2.260
13321SOL    HW152022   4.876   4.946   2.285
13321SOL    HW252023   4.748   4.846   2.278
13322SOL     OW52024   5.331   4.158   2.559
13322SOL    HW152025   5.353   4.235   2.619
13322SOL    HW252026   5.373   4.075   2.595
13323SOL     OW52027   4.451   4.839   1.994
13323SOL    HW152028   4.531   4.898   2.006
13323SOL    HW252029   4.481   4.745   1.983
13324SOL     OW52030   4.479   3.831   1.989
13324SOL    HW152031   4.565   3.779   1.989
13324SOL    HW252032   4.496   3.923   2.023
13325SOL     OW52033   4.192   4.150   2.537
13325SOL    HW152034   4.270   4.091   2.555
13325SOL    HW252035   4.223   4.234   2.492
13326SOL     OW52036   4.130   4.911   3.127
13326SOL    HW152037   4.189   4.960   3.063
13326SOL    HW252038   4.096   4.976   3.196
13327SOL     OW52039   5.434   4.810   3.137
13327SOL    HW152040   5.438   4.910   3.129
13327SOL    HW252041   5.507   4.770   3.083
13328SOL     OW52042   3.898   4.942   1.922
13328SOL    HW152043   3.873   4.958   1.826
13328SOL    HW252044   3.974   5.002   1.947
13329SOL     OW52045   4.316   5.324   2.064
13329SOL    HW152046   4.275   5.405   2.020
13329SOL    HW252047   4.355   5.351   2.153
13330SOL     OW52048   5.044   4.755   3.292
13330SOL    HW152049   4.970   4.692   3.267
13330SOL    HW252050   5.006   4.833   3.341
13331SOL     OW52051   4.186   5.502   3.267
13331SOL    HW152052   4.262   5.563   3.246
13331SOL    HW252053   4.118   5.507   3.194
13332SOL     OW52054   5.338   5.169   2.883
13332SOL    HW152055   5.259   5.221   2.916
13332SOL    HW252056   5.386   5.129   2.960
13333SOL     OW52057   5.365   4.843   2.682
13333SOL    HW152058   5.350   4.939   2.659
13333SOL    HW252059   5.335   4.785   2.606
13334SOL     OW52060   4.399   4.203   2.863
13334SOL    HW152061   4.494   4.174   2.873
13334SOL    HW252062   4.371   4.254   2.944
13335SOL     OW52063   3.862   4.347   3.039
13335SOL    HW152064   3.887   4.406   3.116
13335SOL    HW252065   3.883   4.393   2.953
13336SOL     OW52066   4.050   5.070   3.343
13336SOL    HW152067   4.084   5.158   3.375
13336SOL    HW252068   3.965   5.048   3.391
13337SOL     OW52069   5.360   5.389   3.633
13337SOL    HW152070   5.314   5.306   3.601
13337SOL    HW252071   5.328   5.467   3.580
13338SOL     OW52072   5.051   4.960   2.303
13338SOL    HW152073   5.144   4.959   2.340
13338SOL    HW252074   5.055   4.945   2.204
13339SOL     OW52075   4.346   4.007   2.301
13339SOL    HW152076   4.247   3.991   2.301
13339SOL    HW252077   4.381   4.002   2.394
13340SOL     OW52078   5.330   3.711   2.538
13340SOL    HW152079   5.329   3.733   2.441
13340SOL    HW252080   5.371   3.786   2.589
13341SOL     OW52081   4.855   4.583   3.199
13341SOL    HW152082   4.928   4.525   3.163
13341SOL    HW252083   4.770   4.566   3.149
13342SOL     OW52084   4.348   4.387   2.664
13342SOL    HW152085   4.369   4.313   2.728
13342SOL    HW252086   4.385   4.364   2.574
13343SOL     OW52087   5.014   5.184   2.887
13343SOL    HW152088   4.932   5.129   2.872
13343SOL    HW252089   5.053   5.211   2.799
13344SOL     OW52090   5.062   4.109   2.553
13344SOL    HW152091   5.046   4.117   2.455
13344SOL    HW252092   5.158   4.129   2.573
13345SOL     OW52093   4.792   5.168   4.444
13345SOL    HW152094   4.888   5.194   4.439
13345SOL    HW252095   4.748   5.186   4.356
13346SOL     OW52096   5.319   4.968   4.250
13346SOL    HW152097   5.331   5.028   4.329
13346SOL    HW252098   5.408   4.934   4.220
13347SOL     OW52099   5.293   4.247   5.102
13347SOL    HW152100   5.195   4.238   5.120
13347SOL    HW252101   5.342   4.251   5.189
13348SOL     OW52102   5.063   5.234   4.491
13348SOL    HW152103   5.068   5.333   4.507
13348SOL    HW252104   5.154   5.198   4.473
13349SOL     OW52105   4.774   3.765   4.957
13349SOL    HW152106   4.724   3.729   5.035
13349SOL    HW252107   4.842   3.699   4.927
13350SOL     OW52108   4.576   4.522   5.420
13350SOL    HW152109   4.582   4.596   5.353
13350SOL    HW252110   4.521   4.551   5.498
13351SOL     OW52111   4.256   5.186   4.107
13351SOL    HW152112   4.217   5.225   4.190
13351SOL    HW252113   4.332   5.126   4.131
13352SOL     OW52114   5.248   4.800   5.246
13352SOL    HW152115   5.163   4.811   5.195
13352SOL    HW252116   5.326   4.811   5.184
13353SOL     OW52117   5.133   4.787   4.886
13353SOL    HW152118   5.079   4.762   4.967
13353SOL    HW252119   5.148   4.886   4.885
13354SOL     OW52120   4.686   5.087   5.191
13354SOL    HW152121   4.601   5.137   5.174
13354SOL    HW252122   4.684   5.001   5.141
13355SOL     OW52123   4.157   4.914   4.343
13355SOL    HW152124   4.107   4.831   4.370
13355SOL    HW252125   4.255   4.897   4.353
13356SOL     OW52126   4.296   4.398   4.254
13356SOL    HW152127   4.371   4.435   4.199
13356SOL    HW252128   4.288   4.299   4.236
13357SOL     OW52129   4.948   4.250   5.447
13357SOL    HW152130   5.044   4.234   5.469
13357SOL    HW252131   4.895   4.167   5.463
13358SOL     OW52132   4.124   5.072   3.891
13358SOL    HW152133   4.170   5.108   3.810
13358SOL    HW252134   4.166   5.111   3.973
13359SOL     OW52135   4.317   3.927   4.805
13359SOL    HW152136   4.352   4.018   4.828
13359SOL    HW252137   4.389   3.859   4.820
13360SOL     OW52138   3.995   4.555   4.148
13360SOL    HW152139   4.037   4.561   4.238
13360SOL    HW252140   3.899   4.581   4.153
13361SOL     OW52141   4.580   5.436   4.303
13361SOL    HW152142   4.596   5.352   4.252
13361SOL    HW252143   4.534   5.503   4.245
13362SOL     OW52144   5.470   5.303   4.079
13362SOL    HW152145   5.561   5.263   4.063
13362SOL    HW252146   5.447   5.364   4.003
13363SOL     OW52147   4.785   4.093   4.074
13363SOL    HW152148   4.846   4.172   4.063
13363SOL    HW252149   4.829   4.025   4.133
13364SOL     OW52150   3.833   4.683   5.296
13364SOL    HW152151   3.933   4.683   5.294
13364SOL    HW252152   3.801   4.635   5.378
13365SOL     OW52153   5.331   5.122   4.489
13365SOL    HW152154   5.336   5.149   4.585
13365SOL    HW252155   5.377   5.191   4.433
13366SOL     OW52156   3.992   4.990   4.127
13366SOL    HW152157   4.058   4.962   4.198
13366SOL    HW252158   4.036   4.985   4.038
13367SOL     OW52159   4.822   4.042   3.806
13367SOL    HW152160   4.910   4.085   3.784
13367SOL    HW252161   4.799   4.058   3.902
13368SOL     OW52162   5.284   4.515   5.011
13368SOL    HW152163   5.299   4.542   4.916
13368SOL    HW252164   5.295   4.416   5.020
13369SOL     OW52165   5.219   5.430   5.052
13369SOL    HW152166   5.176   5.421   4.962
13369SOL    HW252167   5.317   5.441   5.041
13370SOL     OW52168   5.429   4.261   4.862
13370SOL    HW152169   5.528   4.262   4.878
13370SOL    HW252170   5.382   4.240   4.948
13371SOL     OW52171   5.563   5.385   4.807
13371SOL    HW152172   5.544   5.427   4.896
13371SOL    HW252173   5.636   5.318   4.818
13372SOL     OW52174   4.963   4.641   3.855
13372SOL    HW152175   4.973   4.610   3.950
13372SOL    HW252176   4.948   4.561   3.796
13373SOL     OW52177   4.794   4.030   5.515
13373SOL    HW152178   4.788   4.047   5.613
13373SOL    HW252179   4.702   4.030   5.475
13374SOL     OW52180   5.439   4.394   4.011
13374SOL    HW152181   5.398   4.311   3.972
13374SOL    HW252182   5.472   4.374   4.103
13375SOL     OW52183   4.679   5.414   3.893
13375SOL    HW152184   4.646   5.347   3.827
13375SOL    HW252185   4.750   5.373   3.950
13376SOL     OW52186   4.444   3.724   5.429
13376SOL    HW152187   4.467   3.630   5.402
13376SOL    HW252188   4.458   3.734   5.528
13377SOL     OW52189   5.458   4.414   4.640
13377SOL    HW152190   5.398   4.494   4.648
13377SOL    HW252191   5.439   4.351   4.716
13378SOL     OW52192   4.792   5.051   5.450
13378SOL    HW152193   4.838   4.963   5.436
13378SOL    HW252194   4.745   5.078   5.366
13379SOL     OW52195   4.421   4.906   5.453
13379SOL    HW152196   4.360   4.986   5.449
13379SOL    HW252197   4.418   4.866   5.545
13380SOL     OW52198   5.353   3.881   5.495
13380SOL    HW152199   5.329   3.933   5.577
13380SOL    HW252200   5.417   3.808   5.519
13381SOL     OW52201   3.708   4.344   4.238
13381SOL    HW152202   3.771   4.293   4.298
13381SOL    HW252203   3.732   4.441   4.241
13382SOL     OW52204   3.902   3.905   4.490
13382SOL    HW152205   3.986   3.931   4.537
13382SOL    HW252206   3.918   3.819   4.440
13383SOL     OW52207   4.070   3.896   4.949
13383SOL    HW152208   4.036   3.803   4.940
13383SOL    HW252209   4.155   3.905   4.897
13384SOL     OW52210   3.894   5.245   4.089
13384SOL    HW152211   3.928   5.151   4.090
13384SOL    HW252212   3.951   5.300   4.028
13385SOL     OW52213   5.134   5.064   4.916
13385SOL    HW152214   5.085   5.075   4.830
13385SOL    HW252215   5.072   5.083   4.993
13386SOL     OW52216   3.906   5.342   4.345
13386SOL    HW152217   3.838   5.415   4.350
13386SOL    HW252218   3.901   5.299   4.255
13387SOL     OW52219   5.401   5.085   4.975
13387SOL    HW152220   5.422   5.126   5.064
13387SOL    HW252221   5.302   5.075   4.966
13388SOL     OW52222   4.679   4.851   5.054
13388SOL    HW152223   4.751   4.786   5.031
13388SOL    HW252224   4.615   4.858   4.977
13389SOL     OW52225   3.760   4.476   3.875
13389SOL    HW152226   3.844   4.427   3.899
13389SOL    HW252227   3.682   4.430   3.916
13390SOL     OW52228   5.280   4.613   4.088
13390SOL    HW152229   5.337   4.533   4.066
13390SOL    HW252230   5.295   4.684   4.019
13391SOL     OW52231   4.636   5.571   4.748
13391SOL    HW152232   4.616   5.503   4.678
13391SOL    HW252233   4.707   5.536   4.810
13392SOL     OW52234   5.121   4.082   4.051
13392SOL    HW152235   5.070   4.164   4.027
13392SOL    HW252236   5.213   4.107   4.081
13393SOL     OW52237   3.990   4.254   5.209
13393SOL    HW152238   3.955   4.173   5.161
13393SOL    HW252239   3.953   4.255   5.303
13394SOL     OW52240   3.887   4.008   5.123
13394SOL    HW152241   3.956   3.971   5.060
13394SOL    HW252242   3.796   3.993   5.084
13395SOL     OW52243   4.819   4.638   4.921
13395SOL    HW152244   4.780   4.563   4.868
13395SOL    HW252245   4.892   4.603   4.980
13396SOL     OW52246   5.390   4.121   4.103
13396SOL    HW152247   5.467   4.059   4.093
13396SOL    HW252248   5.411   4.189   4.174
13397SOL     OW52249   4.677   4.993   3.882
13397SOL    HW152250   4.725   4.971   3.967
13397SOL    HW252251   4.743   4.998   3.807
13398SOL     OW52252   5.437   5.325   4.348
13398SOL    HW152253   5.404   5.415   4.376
13398SOL    HW252254   5.439   5.320   4.248
13399SOL     OW52255   4.873   4.585   4.329
13399SOL    HW152256   4.926   4.652   4.381
13399SOL    HW252257   4.783   4.623   4.309
13400SOL     OW52258   4.527   5.331   5.366
13400SOL    HW152259   4.489   5.269   5.298
13400SOL    HW252260   4.526   5.288   5.456
13401SOL     OW52261   5.038   4.783   4.424
13401SOL    HW152262   5.036   4.847   4.502
13401SOL    HW252263   5.043   4.835   4.339
13402SOL     OW52264   4.631   4.695   4.246
13402SOL    HW152265   4.584   4.631   4.185
13402SOL    HW252266   4.564   4.751   4.294
13403SOL     OW52267   4.950   5.106   5.115
13403SOL    HW152268   4.997   5.177   5.167
13403SOL    HW252269   4.852   5.108   5.137
13404SOL     OW52270   3.725   4.056   4.163
13404SOL    HW152271   3.764   4.087   4.077
13404SOL    HW252272   3.778   4.092   4.239
13405SOL     OW52273   5.404   5.491   3.883
13405SOL    HW152274   5.484   5.551   3.876
13405SOL    HW252275   5.390   5.444   3.795
13406SOL     OW52276   3.853   5.509   5.150
13406SOL    HW152277   3.859   5.606   5.171
13406SOL    HW252278   3.817   5.460   5.230
13407SOL     OW52279   4.479   4.538   4.068
13407SOL    HW152280   4.385   4.559   4.038
13407SOL    HW252281   4.519   4.471   4.006
13408SOL     OW52282   4.158   3.968   4.575
13408SOL    HW152283   4.225   3.965   4.502
13408SOL    HW252284   4.204   3.951   4.663
13409SOL     OW52285   4.022   5.453   3.954
13409SOL    HW152286   4.104   5.479   3.904
13409SOL    HW252287   4.020   5.502   4.042
13410SOL     OW52288   5.127   5.381   4.794
13410SOL    HW152289   5.115   5.436   4.711
13410SOL    HW252290   5.201   5.315   4.780
13411SOL     OW52291   3.731   4.894   4.140
13411SOL    HW152292   3.816   4.943   4.154
13411SOL    HW252293   3.730   4.854   4.049
13412SOL     OW52294   5.202   3.976   5.293
13412SOL    HW152295   5.167   4.066   5.319
13412SOL    HW252296   5.262   3.941   5.365
13413SOL     OW52297   5.158   3.790   3.796
13413SOL    HW152298   5.224   3.715   3.799
13413SOL    HW252299   5.107   3.794   3.882
13414SOL     OW52300   5.259   3.687   5.259
13414SOL    HW152301   5.326   3.728   5.198
13414SOL    HW252302   5.204   3.759   5.301
13415SOL     OW52303   4.367   3.947   4.388
13415SOL    HW152304   4.375   3.847   4.392
13415SOL    HW252305   4.456   3.988   4.409
13416SOL     OW52306   5.288   3.675   4.116
13416SOL    HW152307   5.316   3.653   4.023
13416SOL    HW252308   5.204   3.729   4.114
13417SOL     OW52309   4.268   5.134   5.502
13417SOL    HW152310   4.229   5.195   5.432
13417SOL    HW252311   4.349   5.177   5.541
13418SOL     OW52312   4.103   4.750   5.320
13418SOL    HW152313   4.185   4.751   5.263
13418SOL    HW252314   4.068   4.844   5.329
13419SOL     OW52315   5.424   4.292   5.348
13419SOL    HW152316   5.426   4.386   5.315
13419SOL    HW252317   5.517   4.263   5.374
13420SOL     OW52318   5.207   4.189   5.490
13420SOL    HW152319   5.290   4.225   5.447
13420SOL    HW252320   5.232   4.136   5.571
13421SOL     OW52321   5.015   4.538   4.103
13421SOL    HW152322   4.967   4.550   4.190
13421SOL    HW252323   5.110   4.567   4.113
13422SOL     OW52324   5.287   4.664   4.360
13422SOL    HW152325   5.284   4.652   4.260
13422SOL    HW252326   5.195   4.685   4.393
13423SOL     OW52327   5.435   4.542   5.244
13423SOL    HW152328   5.372   4.550   5.167
13423SOL    HW252329   5.510   4.607   5.232
13424SOL     OW52330   5.360   3.981   3.838
13424SOL    HW152331   5.348   4.019   3.930
13424SOL    HW252332   5.282   3.922   3.816
13425SOL     OW52333   4.433   5.196   5.145
13425SOL    HW152334   4.372   5.271   5.121
13425SOL    HW252335   4.403   5.113   5.098
13426SOL     OW52336   3.842   3.956   5.394
13426SOL    HW152337   3.854   3.967   5.295
13426SOL    HW252338   3.746   3.935   5.413
13427SOL     OW52339   3.761   5.389   5.381
13427SOL    HW152340   3.844   5.414   5.430
13427SOL    HW252341   3.682   5.403   5.441
13428SOL     OW52342   3.886   4.153   4.365
13428SOL    HW152343   3.982   4.178   4.354
13428SOL    HW252344   3.879   4.068   4.417
13429SOL     OW52345   5.075   5.306   5.245
13429SOL    HW152346   5.007   5.370   5.282
13429SOL    HW252347   5.127   5.350   5.172
13430SOL     OW52348   3.982   4.345   3.972
13430SOL    HW152349   4.073   4.322   3.939
13430SOL    HW252350   3.988   4.414   4.044
13431SOL     OW52351   5.393   3.884   5.115
13431SOL    HW152352   5.324   3.933   5.167
13431SOL    HW252353   5.428   3.942   5.042
13432SOL     OW52354   4.054   5.486   4.527
13432SOL    HW152355   4.005   5.440   4.452
13432SOL    HW252356   4.147   5.452   4.532
13433SOL     OW52357   4.135   5.097   4.932
13433SOL    HW152358   4.101   5.087   5.025
13433SOL    HW252359   4.071   5.154   4.879
13434SOL     OW52360   4.848   5.304   5.553
13434SOL    HW152361   4.829   5.211   5.522
13434SOL    HW252362   4.862   5.363   5.473
13435SOL     OW52363   4.447   5.011   4.189
13435SOL    HW152364   4.458   4.948   4.112
13435SOL    HW252365   4.444   4.958   4.274
13436SOL     OW52366   4.125   4.558   4.390
13436SOL    HW152367   4.100   4.515   4.477
13436SOL    HW252368   4.192   4.501   4.343
13437SOL     OW52369   4.926   4.389   3.725
13437SOL    HW152370   4.897   4.430   3.639
13437SOL    HW252371   4.974   4.303   3.707
13438SOL     OW52372   5.061   3.821   4.058
13438SOL    HW152373   4.973   3.809   4.103
13438SOL    HW252374   5.085   3.918   4.055
13439SOL     OW52375   5.025   4.241   5.179
13439SOL    HW152376   4.996   4.267   5.271
13439SOL    HW252377   4.978   4.156   5.153
13440SOL     OW52378   3.724   3.596   3.899
13440SOL    HW152379   3.771   3.536   3.835
13440SOL    HW252380   3.787   3.623   3.972
13441SOL     OW52381   5.353   4.763   3.868
13441SOL    HW152382   5.449   4.775   3.889
13441SOL    HW252383   5.343   4.737   3.772
13442SOL     OW52384   4.579   4.757   5.288
13442SOL    HW152385   4.614   4.803   5.206
13442SOL    HW252386   4.529   4.824   5.344
13443SOL     OW52387   4.851   4.792   5.361
13443SOL    HW152388   4.758   4.756   5.350
13443SOL    HW252389   4.913   4.718   5.388
13444SOL     OW52390   4.818   3.823   4.186
13444SOL    HW152391   4.795   3.788   4.277
13444SOL    HW252392   4.737   3.817   4.127
13445SOL     OW52393   4.882   5.473   5.340
13445SOL    HW152394   4.801   5.472   5.282
13445SOL    HW252395   4.908   5.567   5.362
13446SOL     OW52396   4.051   5.510   4.961
13446SOL    HW152397   4.012   5.467   4.880
13446SOL    HW252398   3.984   5.505   5.036
13447SOL     OW52399   4.657   4.936   4.517
13447SOL    HW152400   4.704   5.016   4.480
13447SOL    HW252401   4.712   4.895   4.590
13448SOL     OW52402   3.883   3.645   4.116
13448SOL    HW152403   3.951   3.653   4.189
13448SOL    HW252404   3.800   3.694   4.143
13449SOL     OW52405   4.389   4.314   5.401
13449SOL    HW152406   4.320   4.352   5.340
13449SOL    HW252407   4.471   4.372   5.399
13450SOL     OW52408   3.765   4.763   3.903
13450SOL    HW152409   3.784   4.665   3.897
13450SOL    HW252410   3.827   4.812   3.843
13451SOL     OW52411   4.533   4.838   4.817
13451SOL    HW152412   4.503   4.745   4.797
13451SOL    HW252413   4.623   4.854   4.777
13452SOL     OW52414   4.957   4.298   3.991
13452SOL    HW152415   4.977   4.380   4.043
13452SOL    HW252416   4.934   4.323   3.897
13453SOL     OW52417   5.245   5.161   5.400
13453SOL    HW152418   5.209   5.076   5.439
13453SOL    HW252419   5.174   5.204   5.344
13454SOL     OW52420   4.560   5.218   3.743
13454SOL    HW152421   4.470   5.239   3.782
13454SOL    HW252422   4.596   5.135   3.788
13455SOL     OW52423   4.432   4.839   4.406
13455SOL    HW152424   4.511   4.879   4.452
13455SOL    HW252425   4.401   4.758   4.457
13456SOL     OW52426   4.655   5.193   4.206
13456SOL    HW152427   4.724   5.188   4.134
13456SOL    HW252428   4.585   5.124   4.190
13457SOL     OW52429   3.719   4.566   5.515
13457SOL    HW152430   3.628   4.606   5.526
13457SOL    HW252431   3.753   4.535   5.604
13458SOL     OW52432   4.652   5.504   5.192
13458SOL    HW152433   4.610   5.437   5.253
13458SOL    HW252434   4.581   5.560   5.150
13459SOL     OW52435   4.801   4.849   4.737
13459SOL    HW152436   4.874   4.917   4.733
13459SOL    HW252437   4.827   4.775   4.799
13460SOL     OW52438   4.200   4.084   5.528
13460SOL    HW152439   4.273   4.066   5.462
13460SOL    HW252440   4.206   4.179   5.560
13461SOL     OW52441   4.224   4.591   3.992
13461SOL    HW152442   4.211   4.671   3.933
13461SOL    HW252443   4.142   4.578   4.048
13462SOL     OW52444   5.333   4.657   4.756
13462SOL    HW152445   5.358   4.717   4.679
13462SOL    HW252446   5.256   4.696   4.805
13463SOL     OW52447   4.907   3.990   5.153
13463SOL    HW152448   4.976   3.938   5.204
13463SOL    HW252449   4.867   3.932   5.082
13464SOL     OW52450   3.667   3.789   4.182
13464SOL    HW152451   3.569   3.775   4.167
13464SOL    HW252452   3.687   3.886   4.178
13465SOL     OW52453   4.961   3.818   5.455
13465SOL    HW152454   5.027   3.812   5.530
13465SOL    HW252455   4.902   3.897   5.469
13466SOL     OW52456   4.152   5.304   5.322
13466SOL    HW152457   4.096   5.367   5.376
13466SOL    HW252458   4.196   5.355   5.248
13467SOL     OW52459   5.461   5.175   5.228
13467SOL    HW152460   5.506   5.262   5.248
13467SOL    HW252461   5.384   5.162   5.292
13468SOL     OW52462   4.151   5.198   4.379
13468SOL    HW152463   4.146   5.099   4.372
13468SOL    HW252464   4.059   5.237   4.373
13469SOL     OW52465   4.855   5.412   4.840
13469SOL    HW152466   4.805   5.338   4.794
13469SOL    HW252467   4.953   5.398   4.830
13470SOL     OW52468   4.002   5.467   5.491
13470SOL    HW152469   4.027   5.564   5.489
13470SOL    HW252470   4.005   5.434   5.585
13471SOL     OW52471   3.862   4.953   5.350
13471SOL    HW152472   3.834   4.861   5.322
13471SOL    HW252473   3.786   5.017   5.335
13472SOL     OW52474   3.917   5.398   4.744
13472SOL    HW152475   3.859   5.324   4.710
13472SOL    HW252476   3.967   5.439   4.668
13473SOL     OW52477   4.785   4.902   4.118
13473SOL    HW152478   4.878   4.910   4.153
13473SOL    HW252479   4.739   4.827   4.165
13474SOL     OW52480   4.486   4.831   3.996
13474SOL    HW152481   4.551   4.882   3.940
13474SOL    HW252482   4.513   4.735   3.999
13475SOL     OW52483   4.325   4.757   5.167
13475SOL    HW152484   4.411   4.737   5.212
13475SOL    HW252485   4.335   4.837   5.108
13476SOL     OW52486   5.464   4.838   5.081
13476SOL    HW152487   5.448   4.926   5.038
13476SOL    HW252488   5.515   4.779   5.019
13477SOL     OW52489   3.929   4.913   3.750
13477SOL    HW152490   3.903   4.944   3.658
13477SOL    HW252491   3.996   4.976   3.789
13478SOL     OW52492   4.323   5.285   3.853
13478SOL    HW152493   4.291   5.377   3.832
13478SOL    HW252494   4.306   5.265   3.950
13479SOL     OW52495   4.999   4.838   5.131
13479SOL    HW152496   4.949   4.806   5.211
13479SOL    HW252497   4.984   4.936   5.118
13480SOL     OW52498   4.273   5.424   5.101
13480SOL    HW152499   4.335   5.502   5.102
13480SOL    HW252500   4.193   5.446   5.044
13481SOL     OW52501   3.900   4.215   5.466
13481SOL    HW152502   3.888   4.116   5.454
13481SOL    HW252503   3.978   4.232   5.526
13482SOL     OW52504   5.352   5.227   4.740
13482SOL    HW152505   5.424   5.296   4.742
13482SOL    HW252506   5.364   5.165   4.817
13483SOL     OW52507   3.730   4.619   4.186
13483SOL    HW152508   3.740   4.718   4.191
13483SOL    HW252509   3.635   4.596   4.163
13484SOL     OW52510   4.191   4.429   5.263
13484SOL    HW152511   4.117   4.368   5.234
13484SOL    HW252512   4.167   4.523   5.238
13485SOL     OW52513   5.389   4.840   4.549
13485SOL    HW152514   5.367   4.935   4.528
13485SOL    HW252515   5.360   4.781   4.473
13486SOL     OW52516   4.368   4.973   4.995
13486SOL    HW152517   4.282   5.012   4.961
13486SOL    HW252518   4.418   4.932   4.918
13487SOL     OW52519   4.048   5.085   5.189
13487SOL    HW152520   4.085   5.162   5.240
13487SOL    HW252521   3.976   5.041   5.244
13488SOL     OW52522   5.323   5.415   5.481
13488SOL    HW152523   5.297   5.319   5.467
13488SOL    HW252524   5.278   5.472   5.412
13489SOL     OW52525   5.065   4.909   4.180
13489SOL    HW152526   5.158   4.932   4.206
13489SOL    HW252527   5.059   4.895   4.081
13490SOL     OW52528   4.271   4.128   4.205
13490SOL    HW152529   4.252   4.080   4.119
13490SOL    HW252530   4.301   4.063   4.274
13491SOL     OW52531   5.009   4.499   5.058
13491SOL    HW152532   5.002   4.410   5.103
13491SOL    HW252533   5.106   4.524   5.050
13492SOL     OW52534   4.965   5.077   4.699
13492SOL    HW152535   4.878   5.121   4.719
13492SOL    HW252536   5.010   5.125   4.623
13493SOL     OW52537   5.199   4.990   6.139
13493SOL    HW152538   5.215   5.042   6.223
13493SOL    HW252539   5.286   4.961   6.099
13494SOL     OW52540   5.396   4.288   6.944
13494SOL    HW152541   5.303   4.277   6.978
13494SOL    HW252542   5.455   4.319   7.018
13495SOL     OW52543   4.047   3.867   5.545
13495SOL    HW152544   3.966   3.887   5.489
13495SOL    HW252545   4.114   3.941   5.534
13496SOL     OW52546   4.874   3.687   6.813
13496SOL    HW152547   4.786   3.675   6.858
13496SOL    HW252548   4.906   3.599   6.778
13497SOL     OW52549   4.667   4.545   7.271
13497SOL    HW152550   4.663   4.472   7.202
13497SOL    HW252551   4.578   4.552   7.317
13498SOL     OW52552   4.247   5.190   5.940
13498SOL    HW152553   4.198   5.205   6.026
13498SOL    HW252554   4.315   5.118   5.953
13499SOL     OW52555   4.222   3.708   5.691
13499SOL    HW152556   4.314   3.746   5.695
13499SOL    HW252557   4.164   3.767   5.634
13500SOL     OW52558   5.325   4.673   6.985
13500SOL    HW152559   5.229   4.694   7.001
13500SOL    HW252560   5.362   4.736   6.916
13501SOL     OW52561   5.167   4.745   6.719
13501SOL    HW152562   5.125   4.795   6.643
13501SOL    HW252563   5.257   4.784   6.739
13502SOL     OW52564   4.561   5.027   6.964
13502SOL    HW152565   4.519   5.117   6.954
13502SOL    HW252566   4.636   5.017   6.898
13503SOL     OW52567   4.156   4.928   6.269
13503SOL    HW152568   4.094   4.876   6.328
13503SOL    HW252569   4.251   4.911   6.297
13504SOL     OW52570   4.343   4.254   6.121
13504SOL    HW152571   4.361   4.323   6.051
13504SOL    HW252572   4.370   4.164   6.085
13505SOL     OW52573   4.988   4.246   7.289
13505SOL    HW152574   5.077   4.223   7.328
13505SOL    HW252575   4.925   4.169   7.300
13506SOL     OW52576   4.109   5.091   5.720
13506SOL    HW152577   4.160   5.108   5.636
13506SOL    HW252578   4.154   5.138   5.796
13507SOL     OW52579   4.166   3.967   6.564
13507SOL    HW152580   4.231   4.042   6.549
13507SOL    HW252581   4.198   3.885   6.516
13508SOL     OW52582   4.004   4.446   6.044
13508SOL    HW152583   4.044   4.471   6.132
13508SOL    HW252584   3.905   4.433   6.055
13509SOL     OW52585   4.533   5.410   6.218
13509SOL    HW152586   4.567   5.325   6.179
13509SOL    HW252587   4.534   5.482   6.148
13510SOL     OW52588   5.458   5.296   5.914
13510SOL    HW152589   5.554   5.284   5.892
13510SOL    HW252590   5.418   5.364   5.852
13511SOL     OW52591   3.898   4.672   7.185
13511SOL    HW152592   3.998   4.670   7.186
13511SOL    HW252593   3.865   4.747   7.242
13512SOL     OW52594   4.195   4.357   5.590
13512SOL    HW152595   4.167   4.453   5.585
13512SOL    HW252596   4.273   4.342   5.530
13513SOL     OW52597   4.273   5.397   6.310
13513SOL    HW152598   4.367   5.400   6.276
13513SOL    HW252599   4.224   5.323   6.264
13514SOL     OW52600   4.676   4.337   7.088
13514SOL    HW152601   4.713   4.246   7.107
13514SOL    HW252602   4.741   4.389   7.033
13515SOL     OW52603   5.326   5.113   6.358
13515SOL    HW152604   5.324   5.154   6.449
13515SOL    HW252605   5.378   5.171   6.296
13516SOL     OW52606   4.001   4.937   6.031
13516SOL    HW152607   4.051   4.933   6.118
13516SOL    HW252608   4.053   4.890   5.960
13517SOL     OW52609   4.793   4.083   5.785
13517SOL    HW152610   4.856   4.021   5.831
13517SOL    HW252611   4.819   4.178   5.804
13518SOL     OW52612   4.039   4.218   6.770
13518SOL    HW152613   4.022   4.120   6.774
13518SOL    HW252614   3.956   4.266   6.741
13519SOL     OW52615   5.093   4.514   6.839
13519SOL    HW152616   5.119   4.599   6.793
13519SOL    HW252617   5.172   4.475   6.885
13520SOL     OW52618   4.095   3.976   6.011
13520SOL    HW152619   4.050   4.021   6.088
13520SOL    HW252620   4.047   3.999   5.926
13521SOL     OW52621   5.514   4.389   6.720
13521SOL    HW152622   5.612   4.384   6.741
13521SOL    HW252623   5.461   4.353   6.796
13522SOL     OW52624   5.565   5.427   6.696
13522SOL    HW152625   5.577   5.471   6.785
13522SOL    HW252626   5.654   5.411   6.654
13523SOL     OW52627   4.902   4.678   5.692
13523SOL    HW152628   4.918   4.637   5.782
13523SOL    HW252629   4.862   4.609   5.632
13524SOL     OW52630   4.805   4.044   7.337
13524SOL    HW152631   4.849   4.008   7.419
13524SOL    HW252632   4.706   4.029   7.344
13525SOL     OW52633   4.697   5.491   5.708
13525SOL    HW152634   4.733   5.431   5.637
13525SOL    HW252635   4.711   5.450   5.798
13526SOL     OW52636   4.463   3.767   7.223
13526SOL    HW152637   4.487   3.671   7.207
13526SOL    HW252638   4.469   3.786   7.321
13527SOL     OW52639   5.398   4.442   6.485
13527SOL    HW152640   5.300   4.424   6.493
13527SOL    HW252641   5.442   4.427   6.573
13528SOL     OW52642   4.604   5.026   7.238
13528SOL    HW152643   4.674   4.959   7.262
13528SOL    HW252644   4.590   5.025   7.139
13529SOL     OW52645   4.423   4.806   7.288
13529SOL    HW152646   4.482   4.887   7.299
13529SOL    HW252647   4.451   4.736   7.353
13530SOL     OW52648   5.428   3.917   7.347
13530SOL    HW152649   5.393   3.942   7.437
13530SOL    HW252650   5.379   3.837   7.313
13531SOL     OW52651   3.745   4.420   6.130
13531SOL    HW152652   3.757   4.353   6.202
13531SOL    HW252653   3.717   4.507   6.169
13532SOL     OW52654   3.912   3.881   6.400
13532SOL    HW152655   3.981   3.923   6.458
13532SOL    HW252656   3.937   3.786   6.380
13533SOL     OW52657   4.026   3.937   6.792
13533SOL    HW152658   4.013   3.839   6.809
13533SOL    HW252659   4.080   3.949   6.709
13534SOL     OW52660   3.889   5.171   5.919
13534SOL    HW152661   3.921   5.084   5.956
13534SOL    HW252662   3.943   5.194   5.838
13535SOL     OW52663   3.870   5.266   6.181
13535SOL    HW152664   3.774   5.275   6.209
13535SOL    HW252665   3.875   5.250   6.083
13536SOL     OW52666   5.482   5.109   6.775
13536SOL    HW152667   5.489   5.147   6.868
13536SOL    HW252668   5.425   5.170   6.719
13537SOL     OW52669   4.159   4.631   5.563
13537SOL    HW152670   4.140   4.669   5.473
13537SOL    HW252671   4.108   4.682   5.633
13538SOL     OW52672   3.795   4.477   5.761
13538SOL    HW152673   3.871   4.412   5.769
13538SOL    HW252674   3.716   4.443   5.811
13539SOL     OW52675   4.585   5.489   6.489
13539SOL    HW152676   4.595   5.462   6.394
13539SOL    HW252677   4.512   5.435   6.532
13540SOL     OW52678   4.425   4.590   5.635
13540SOL    HW152679   4.445   4.498   5.667
13540SOL    HW252680   4.327   4.598   5.616
13541SOL     OW52681   4.034   4.289   7.040
13541SOL    HW152682   4.031   4.248   6.949
13541SOL    HW252683   4.063   4.221   7.107
13542SOL     OW52684   3.846   4.006   6.996
13542SOL    HW152685   3.918   3.984   6.930
13542SOL    HW252686   3.757   3.986   6.956
13543SOL     OW52687   4.682   4.497   6.695
13543SOL    HW152688   4.628   4.509   6.612
13543SOL    HW252689   4.623   4.505   6.776
13544SOL     OW52690   5.333   4.124   5.955
13544SOL    HW152691   5.416   4.081   5.988
13544SOL    HW252692   5.318   4.210   6.003
13545SOL     OW52693   4.521   4.051   5.785
13545SOL    HW152694   4.475   4.043   5.874
13545SOL    HW252695   4.619   4.064   5.799
13546SOL     OW52696   4.651   5.013   5.694
13546SOL    HW152697   4.704   4.995   5.778
13546SOL    HW252698   4.713   5.017   5.616
13547SOL     OW52699   5.454   5.290   6.188
13547SOL    HW152700   5.417   5.378   6.220
13547SOL    HW252701   5.446   5.286   6.088
13548SOL     OW52702   4.543   5.309   7.211
13548SOL    HW152703   4.509   5.296   7.118
13548SOL    HW252704   4.565   5.220   7.251
13549SOL     OW52705   4.004   4.775   6.436
13549SOL    HW152706   3.911   4.811   6.432
13549SOL    HW252707   4.020   4.735   6.527
13550SOL     OW52708   3.745   4.038   5.956
13550SOL    HW152709   3.811   4.042   5.881
13550SOL    HW252710   3.793   4.051   6.043
13551SOL     OW52711   5.366   5.497   5.743
13551SOL    HW152712   5.448   5.553   5.737
13551SOL    HW252713   5.342   5.462   5.653
13552SOL     OW52714   4.526   4.522   6.913
13552SOL    HW152715   4.499   4.612   6.949
13552SOL    HW252716   4.566   4.468   6.986
13553SOL     OW52717   3.789   5.493   6.972
13553SOL    HW152718   3.790   5.593   6.976
13553SOL    HW252719   3.775   5.457   7.064
13554SOL     OW52720   4.391   4.418   5.919
13554SOL    HW152721   4.316   4.478   5.891
13554SOL    HW252722   4.445   4.393   5.838
13555SOL     OW52723   4.009   4.220   6.467
13555SOL    HW152724   4.068   4.178   6.399
13555SOL    HW252725   4.051   4.212   6.558
13556SOL     OW52726   4.025   5.440   5.766
13556SOL    HW152727   4.112   5.485   5.747
13556SOL    HW252728   4.005   5.445   5.864
13557SOL     OW52729   3.744   4.870   6.488
13557SOL    HW152730   3.657   4.870   6.439
13557SOL    HW252731   3.736   4.811   6.568
13558SOL     OW52732   4.504   3.743   5.976
13558SOL    HW152733   4.486   3.726   5.879
13558SOL    HW252734   4.460   3.829   6.003
13559SOL     OW52735   3.727   4.847   6.053
13559SOL    HW152736   3.816   4.890   6.069
13559SOL    HW252737   3.724   4.811   5.959
13560SOL     OW52738   5.260   4.012   7.131
13560SOL    HW152739   5.214   4.096   7.102
13560SOL    HW252740   5.315   4.030   7.212
13561SOL     OW52741   5.104   3.768   5.719
13561SOL    HW152742   5.098   3.672   5.692
13561SOL    HW252743   5.031   3.790   5.784
13562SOL     OW52744   5.263   3.744   7.173
13562SOL    HW152745   5.263   3.689   7.089
13562SOL    HW252746   5.256   3.841   7.149
13563SOL     OW52747   4.389   3.918   6.294
13563SOL    HW152748   4.324   3.848   6.323
13563SOL    HW252749   4.473   3.910   6.347
13564SOL     OW52750   4.929   4.365   6.668
13564SOL    HW152751   4.839   4.409   6.665
13564SOL    HW252752   4.992   4.421   6.723
13565SOL     OW52753   5.344   3.709   5.865
13565SOL    HW152754   5.373   3.623   5.822
13565SOL    HW252755   5.262   3.743   5.819
13566SOL     OW52756   4.171   4.729   7.213
13566SOL    HW152757   4.168   4.739   7.114
13566SOL    HW252758   4.256   4.768   7.248
13567SOL     OW52759   3.823   5.077   6.651
13567SOL    HW152760   3.800   5.011   6.580
13567SOL    HW252761   3.746   5.085   6.715
13568SOL     OW52762   5.448   4.289   7.248
13568SOL    HW152763   5.446   4.381   7.209
13568SOL    HW252764   5.542   4.256   7.252
13569SOL     OW52765   5.025   4.173   6.845
13569SOL    HW152766   4.981   4.222   6.769
13569SOL    HW252767   4.977   4.086   6.860
13570SOL     OW52768   5.232   4.184   7.384
13570SOL    HW152769   5.312   4.227   7.342
13570SOL    HW252770   5.262   4.124   7.458
13571SOL     OW52771   4.970   4.577   5.945
13571SOL    HW152772   4.964   4.669   5.985
13571SOL    HW252773   5.041   4.525   5.992
13572SOL     OW52774   5.378   4.604   6.261
13572SOL    HW152775   5.382   4.534   6.189
13572SOL    HW252776   5.389   4.561   6.350
13573SOL     OW52777   5.515   4.518   7.103
13573SOL    HW152778   5.439   4.573   7.067
13573SOL    HW252779   5.598   4.537   7.050
13574SOL     OW52780   5.254   4.019   5.710
13574SOL    HW152781   5.282   4.058   5.798
13574SOL    HW252782   5.195   3.940   5.726
13575SOL     OW52783   4.481   5.288   6.940
13575SOL    HW152784   4.390   5.330   6.941
13575SOL    HW252785   4.540   5.339   6.878
13576SOL     OW52786   3.807   3.908   7.249
13576SOL    HW152787   3.831   3.947   7.160
13576SOL    HW252788   3.708   3.909   7.261
13577SOL     OW52789   3.745   5.392   7.221
13577SOL    HW152790   3.828   5.411   7.273
13577SOL    HW252791   3.665   5.405   7.280
13578SOL     OW52792   3.878   4.054   6.188
13578SOL    HW152793   3.840   4.135   6.234
13578SOL    HW252794   3.896   3.983   6.256
13579SOL     OW52795   4.015   4.297   5.797
13579SOL    HW152796   4.090   4.325   5.737
13579SOL    HW252797   4.029   4.338   5.887
13580SOL     OW52798   5.449   4.015   6.924
13580SOL    HW152799   5.377   3.988   6.989
13580SOL    HW252800   5.439   4.111   6.901
13581SOL     OW52801   3.986   5.446   6.356
13581SOL    HW152802   3.940   5.393   6.284
13581SOL    HW252803   4.084   5.446   6.340
13582SOL     OW52804   4.037   4.942   6.790
13582SOL    HW152805   4.048   4.987   6.879
13582SOL    HW252806   3.974   4.995   6.734
13583SOL     OW52807   4.432   4.993   5.978
13583SOL    HW152808   4.445   4.943   5.892
13583SOL    HW252809   4.429   4.927   6.054
13584SOL     OW52810   4.063   4.532   6.302
13584SOL    HW152811   4.058   4.622   6.345
13584SOL    HW252812   4.145   4.485   6.333
13585SOL     OW52813   3.953   4.029   5.774
13585SOL    HW152814   3.999   3.984   5.697
13585SOL    HW252815   3.974   4.127   5.773
13586SOL     OW52816   3.772   4.255   6.342
13586SOL    HW152817   3.698   4.292   6.398
13586SOL    HW252818   3.855   4.249   6.397
13587SOL     OW52819   4.176   4.844   5.824
13587SOL    HW152820   4.273   4.835   5.800
13587SOL    HW252821   4.138   4.926   5.781
13588SOL     OW52822   4.788   4.438   5.566
13588SOL    HW152823   4.716   4.470   5.505
13588SOL    HW252824   4.852   4.381   5.515
13589SOL     OW52825   4.529   4.337   5.697
13589SOL    HW152826   4.623   4.352   5.667
13589SOL    HW252827   4.512   4.238   5.706
13590SOL     OW52828   4.913   3.817   5.907
13590SOL    HW152829   4.825   3.769   5.909
13590SOL    HW252830   4.945   3.832   6.001
13591SOL     OW52831   5.151   4.259   7.058
13591SOL    HW152832   5.088   4.277   7.134
13591SOL    HW252833   5.099   4.232   6.977
13592SOL     OW52834   3.788   3.759   5.721
13592SOL    HW152835   3.858   3.694   5.751
13592SOL    HW252836   3.821   3.852   5.736
13593SOL     OW52837   4.003   4.687   6.701
13593SOL    HW152838   4.016   4.624   6.778
13593SOL    HW252839   4.020   4.781   6.731
13594SOL     OW52840   5.409   4.793   5.658
13594SOL    HW152841   5.449   4.879   5.627
13594SOL    HW252842   5.339   4.763   5.592
13595SOL     OW52843   4.286   4.361   6.751
13595SOL    HW152844   4.312   4.408   6.835
13595SOL    HW252845   4.196   4.320   6.762
13596SOL     OW52846   4.456   4.774   7.015
13596SOL    HW152847   4.495   4.862   6.985
13596SOL    HW252848   4.446   4.774   7.114
13597SOL     OW52849   4.761   4.810   7.292
13597SOL    HW152850   4.730   4.723   7.252
13597SOL    HW252851   4.809   4.792   7.377
13598SOL     OW52852   4.961   5.516   7.188
13598SOL    HW152853   4.866   5.487   7.173
13598SOL    HW252854   4.963   5.613   7.209
13599SOL     OW52855   4.231   3.739   6.424
13599SOL    HW152856   4.159   3.679   6.390
13599SOL    HW252857   4.300   3.686   6.473
13600SOL     OW52858   4.009   5.455   6.812
13600SOL    HW152859   3.973   5.412   6.730
13600SOL    HW252860   3.938   5.457   6.882
13601SOL     OW52861   4.440   4.510   6.556
13601SOL    HW152862   4.392   4.483   6.472
13601SOL    HW252863   4.389   4.479   6.636
13602SOL     OW52864   3.727   4.696   6.699
13602SOL    HW152865   3.824   4.674   6.692
13602SOL    HW252866   3.674   4.630   6.646
13603SOL     OW52867   3.991   3.721   6.045
13603SOL    HW152868   4.037   3.809   6.034
13603SOL    HW252869   3.892   3.735   6.050
13604SOL     OW52870   4.414   4.337   7.180
13604SOL    HW152871   4.358   4.389   7.116
13604SOL    HW252872   4.506   4.326   7.143
13605SOL     OW52873   3.769   4.755   5.790
13605SOL    HW152874   3.794   4.659   5.784
13605SOL    HW252875   3.829   4.809   5.729
13606SOL     OW52876   4.851   4.350   5.816
13606SOL    HW152877   4.881   4.424   5.877
13606SOL    HW252878   4.832   4.387   5.725
13607SOL     OW52879   3.926   4.523   6.933
13607SOL    HW152880   3.954   4.438   6.979
13607SOL    HW252881   3.897   4.590   7.001
13608SOL     OW52882   4.495   5.231   5.620
13608SOL    HW152883   4.479   5.294   5.696
13608SOL    HW252884   4.552   5.155   5.651
13609SOL     OW52885   4.369   5.351   6.572
13609SOL    HW152886   4.313   5.353   6.489
13609SOL    HW252887   4.316   5.310   6.646
13610SOL     OW52888   4.612   5.192   6.065
13610SOL    HW152889   4.678   5.224   5.997
13610SOL    HW252890   4.546   5.131   6.021
13611SOL     OW52891   3.816   4.528   6.461
13611SOL    HW152892   3.901   4.506   6.412
13611SOL    HW252893   3.753   4.574   6.399
13612SOL     OW52894   4.679   5.520   7.100
13612SOL    HW152895   4.644   5.438   7.146
13612SOL    HW252896   4.603   5.570   7.058
13613SOL     OW52897   4.174   4.101   7.204
13613SOL    HW152898   4.263   4.076   7.164
13613SOL    HW252899   4.189   4.167   7.278
13614SOL     OW52900   4.173   4.572   5.868
13614SOL    HW152901   4.163   4.671   5.862
13614SOL    HW252902   4.107   4.535   5.934
13615SOL     OW52903   4.914   3.935   6.924
13615SOL    HW152904   4.933   3.916   7.021
13615SOL    HW252905   4.903   3.849   6.875
13616SOL     OW52906   3.725   3.776   6.038
13616SOL    HW152907   3.632   3.739   6.032
13616SOL    HW252908   3.725   3.871   6.009
13617SOL     OW52909   4.958   3.868   7.190
13617SOL    HW152910   5.051   3.870   7.227
13617SOL    HW252911   4.900   3.931   7.242
13618SOL     OW52912   4.095   5.296   7.152
13618SOL    HW152913   4.062   5.356   7.225
13618SOL    HW252914   4.156   5.347   7.092
13619SOL     OW52915   5.493   5.190   7.048
13619SOL    HW152916   5.535   5.272   7.085
13619SOL    HW252917   5.402   5.178   7.086
13620SOL     OW52918   4.133   5.193   6.195
13620SOL    HW152919   4.141   5.099   6.227
13620SOL    HW252920   4.036   5.219   6.193
13621SOL     OW52921   4.648   5.434   6.774
13621SOL    HW152922   4.728   5.483   6.809
13621SOL    HW252923   4.637   5.455   6.677
13622SOL     OW52924   3.980   5.460   7.360
13622SOL    HW152925   4.001   5.557   7.362
13622SOL    HW252926   3.984   5.423   7.453
13623SOL     OW52927   3.785   4.987   7.099
13623SOL    HW152928   3.748   4.914   7.042
13623SOL    HW252929   3.729   5.069   7.089
13624SOL     OW52930   3.876   5.348   6.597
13624SOL    HW152931   3.866   5.249   6.600
13624SOL    HW252932   3.910   5.376   6.507
13625SOL     OW52933   4.573   3.839   6.481
13625SOL    HW152934   4.663   3.844   6.524
13625SOL    HW252935   4.521   3.764   6.522
13626SOL     OW52936   4.753   4.958   5.947
13626SOL    HW152937   4.834   4.907   5.978
13626SOL    HW252938   4.718   5.014   6.022
13627SOL     OW52939   4.443   4.843   5.742
13627SOL    HW152940   4.525   4.895   5.719
13627SOL    HW252941   4.455   4.748   5.715
13628SOL     OW52942   4.483   3.790   5.694
13628SOL    HW152943   4.570   3.740   5.690
13628SOL    HW252944   4.502   3.886   5.716
13629SOL     OW52945   4.180   4.107   6.285
13629SOL    HW152946   4.250   4.038   6.303
13629SOL    HW252947   4.217   4.176   6.222
13630SOL     OW52948   4.194   4.738   6.941
13630SOL    HW152949   4.292   4.754   6.949
13630SOL    HW252950   4.152   4.812   6.889
13631SOL     OW52951   5.412   4.844   6.784
13631SOL    HW152952   5.435   4.941   6.784
13631SOL    HW252953   5.483   4.792   6.737
13632SOL     OW52954   3.926   4.904   5.619
13632SOL    HW152955   3.901   4.923   5.524
13632SOL    HW252956   3.981   4.980   5.654
13633SOL     OW52957   4.396   5.394   5.830
13633SOL    HW152958   4.336   5.458   5.781
13633SOL    HW252959   4.340   5.324   5.875
13634SOL     OW52960   4.246   5.432   6.954
13634SOL    HW152961   4.295   5.519   6.958
13634SOL    HW252962   4.164   5.442   6.897
13635SOL     OW52963   5.355   5.283   6.596
13635SOL    HW152964   5.283   5.341   6.558
13635SOL    HW252965   5.432   5.340   6.626
13636SOL     OW52966   3.657   4.650   6.243
13636SOL    HW152967   3.686   4.725   6.183
13636SOL    HW252968   3.557   4.648   6.248
13637SOL     OW52969   4.241   4.468   7.014
13637SOL    HW152970   4.159   4.413   7.032
13637SOL    HW252971   4.214   4.561   6.988
13638SOL     OW52972   5.464   4.870   6.284
13638SOL    HW152973   5.395   4.935   6.316
13638SOL    HW252974   5.421   4.780   6.272
13639SOL     OW52975   4.346   4.185   6.551
13639SOL    HW152976   4.444   4.170   6.538
13639SOL    HW252977   4.332   4.249   6.627
13640SOL     OW52978   3.827   4.387   6.708
13640SOL    HW152979   3.854   4.450   6.782
13640SOL    HW252980   3.829   4.436   6.621
13641SOL     OW52981   4.043   5.054   7.035
13641SOL    HW152982   4.070   5.140   7.079
13641SOL    HW252983   3.951   5.029   7.064
13642SOL     OW52984   5.275   5.435   7.320
13642SOL    HW152985   5.182   5.399   7.308
13642SOL    HW252986   5.287   5.514   7.259
13643SOL     OW52987   4.995   4.845   6.019
13643SOL    HW152988   5.060   4.892   6.080
13643SOL    HW252989   5.017   4.868   5.924
13644SOL     OW52990   4.373   3.987   6.032
13644SOL    HW152991   4.276   3.981   6.012
13644SOL    HW252992   4.389   3.963   6.128
13645SOL     OW52993   4.836   4.484   6.935
13645SOL    HW152994   4.935   4.495   6.919
13645SOL    HW252995   4.787   4.501   6.849
13646SOL     OW52996   4.294   4.387   6.357
13646SOL    HW152997   4.293   4.310   6.421
13646SOL    HW252998   4.321   4.355   6.266
13647SOL     OW52999   4.812   5.122   8.146
13647SOL    HW153000   4.894   5.170   8.178
13647SOL    HW253001   4.833   5.075   8.060
13648SOL     OW53002   5.349   4.282   8.785
13648SOL    HW153003   5.264   4.253   8.830
13648SOL    HW253004   5.419   4.298   8.854
13649SOL     OW53005   4.073   3.851   7.274
13649SOL    HW153006   3.974   3.870   7.275
13649SOL    HW253007   4.122   3.934   7.246
13650SOL     OW53008   5.049   5.239   8.232
13650SOL    HW153009   5.062   5.338   8.242
13650SOL    HW253010   5.138   5.196   8.218
13651SOL     OW53011   4.959   3.767   8.713
13651SOL    HW153012   4.879   3.741   8.766
13651SOL    HW253013   4.978   3.696   8.645
13652SOL     OW53014   4.652   4.604   9.135
13652SOL    HW153015   4.621   4.628   9.042
13652SOL    HW253016   4.574   4.608   9.197
13653SOL     OW53017   4.224   3.735   7.486
13653SOL    HW153018   4.312   3.781   7.491
13653SOL    HW253019   4.170   3.774   7.412
13654SOL     OW53020   5.274   4.736   8.936
13654SOL    HW153021   5.180   4.763   8.916
13654SOL    HW253022   5.338   4.793   8.884
13655SOL     OW53023   5.146   4.750   8.643
13655SOL    HW153024   5.087   4.747   8.723
13655SOL    HW253025   5.184   4.842   8.632
13656SOL     OW53026   4.682   5.050   8.852
13656SOL    HW153027   4.598   5.103   8.837
13656SOL    HW253028   4.682   4.970   8.791
13657SOL     OW53029   4.519   4.327   7.945
13657SOL    HW153030   4.553   4.399   7.885
13657SOL    HW253031   4.453   4.271   7.896
13658SOL     OW53032   4.253   4.081   8.441
13658SOL    HW153033   4.321   4.155   8.445
13658SOL    HW253034   4.290   4.005   8.389
13659SOL     OW53035   4.393   5.444   7.992
13659SOL    HW153036   4.485   5.413   8.019
13659SOL    HW253037   4.400   5.498   7.908
13660SOL     OW53038   5.468   5.315   7.810
13660SOL    HW153039   5.564   5.288   7.797
13660SOL    HW253040   5.428   5.337   7.721
13661SOL     OW53041   5.350   4.008   8.484
13661SOL    HW153042   5.396   4.095   8.501
13661SOL    HW253043   5.251   4.024   8.475
13662SOL     OW53044   4.769   4.028   7.758
13662SOL    HW153045   4.814   4.116   7.772
13662SOL    HW253046   4.776   3.974   7.842
13663SOL     OW53047   3.847   4.718   8.970
13663SOL    HW153048   3.943   4.743   8.987
13663SOL    HW253049   3.807   4.683   9.055
13664SOL     OW53050   4.233   4.305   7.378
13664SOL    HW153051   4.196   4.394   7.405
13664SOL    HW253052   4.309   4.318   7.316
13665SOL     OW53053   4.297   5.312   8.222
13665SOL    HW153054   4.323   5.356   8.136
13665SOL    HW253055   4.200   5.288   8.220
13666SOL     OW53056   4.697   4.315   8.958
13666SOL    HW153057   4.731   4.257   9.032
13666SOL    HW253058   4.773   4.348   8.903
13667SOL     OW53059   5.309   5.128   8.234
13667SOL    HW153060   5.321   5.173   8.323
13667SOL    HW253061   5.364   5.175   8.166
13668SOL     OW53062   4.931   3.943   7.548
13668SOL    HW153063   5.002   3.875   7.565
13668SOL    HW253064   4.880   3.959   7.632
13669SOL     OW53065   4.080   4.252   8.689
13669SOL    HW153066   4.083   4.153   8.677
13669SOL    HW253067   3.998   4.289   8.645
13670SOL     OW53068   5.151   4.467   8.697
13670SOL    HW153069   5.167   4.564   8.683
13670SOL    HW253070   5.237   4.422   8.722
13671SOL     OW53071   5.252   5.442   8.716
13671SOL    HW153072   5.177   5.451   8.650
13671SOL    HW253073   5.339   5.443   8.668
13672SOL     OW53074   5.461   4.248   8.541
13672SOL    HW153075   5.549   4.296   8.538
13672SOL    HW253076   5.420   4.260   8.631
13673SOL     OW53077   5.507   5.453   8.586
13673SOL    HW153078   5.542   5.496   8.669
13673SOL    HW253079   5.584   5.423   8.530
13674SOL     OW53080   4.640   4.114   8.061
13674SOL    HW153081   4.704   4.147   8.130
13674SOL    HW253082   4.608   4.190   8.006
13675SOL     OW53083   4.848   4.683   7.520
13675SOL    HW153084   4.799   4.689   7.607
13675SOL    HW253085   4.869   4.587   7.500
13676SOL     OW53086   5.491   4.362   7.707
13676SOL    HW153087   5.416   4.297   7.722
13676SOL    HW253088   5.536   4.381   7.795
13677SOL     OW53089   4.401   3.734   9.169
13677SOL    HW153090   4.364   3.656   9.220
13677SOL    HW253091   4.450   3.795   9.231
13678SOL     OW53092   5.372   4.390   8.323
13678SOL    HW153093   5.372   4.482   8.363
13678SOL    HW253094   5.395   4.323   8.393
13679SOL     OW53095   4.779   5.034   9.128
13679SOL    HW153096   4.826   4.946   9.122
13679SOL    HW253097   4.730   5.051   9.042
13680SOL     OW53098   4.435   4.867   9.106
13680SOL    HW153099   4.381   4.950   9.118
13680SOL    HW253100   4.425   4.809   9.187
13681SOL     OW53101   5.078   3.670   8.275
13681SOL    HW153102   5.024   3.755   8.275
13681SOL    HW253103   5.163   3.685   8.225
13682SOL     OW53104   5.443   3.909   9.145
13682SOL    HW153105   5.362   3.946   9.192
13682SOL    HW253106   5.497   3.855   9.210
13683SOL     OW53107   4.063   3.988   8.624
13683SOL    HW153108   4.026   3.897   8.608
13683SOL    HW253109   4.130   4.009   8.553
13684SOL     OW53110   4.733   4.496   8.322
13684SOL    HW153111   4.641   4.523   8.294
13684SOL    HW253112   4.756   4.408   8.281
13685SOL     OW53113   3.816   5.217   7.751
13685SOL    HW153114   3.845   5.131   7.709
13685SOL    HW253115   3.871   5.292   7.715
13686SOL     OW53116   5.162   5.032   8.650
13686SOL    HW153117   5.120   5.072   8.568
13686SOL    HW253118   5.098   5.039   8.726
13687SOL     OW53119   3.838   5.264   8.028
13687SOL    HW153120   3.746   5.294   8.054
13687SOL    HW253121   3.839   5.243   7.930
13688SOL     OW53122   5.423   5.106   8.677
13688SOL    HW153123   5.439   5.154   8.763
13688SOL    HW253124   5.326   5.081   8.671
13689SOL     OW53125   4.159   4.570   7.436
13689SOL    HW153126   4.162   4.622   7.351
13689SOL    HW253127   4.076   4.592   7.486
13690SOL     OW53128   4.669   4.823   8.690
13690SOL    HW153129   4.724   4.743   8.665
13690SOL    HW253130   4.606   4.845   8.616
13691SOL     OW53131   4.644   5.441   8.368
13691SOL    HW153132   4.636   5.394   8.281
13691SOL    HW253133   4.555   5.447   8.412
13692SOL     OW53134   4.441   4.562   7.432
13692SOL    HW153135   4.478   4.477   7.470
13692SOL    HW253136   4.342   4.563   7.442
13693SOL     OW53137   5.056   4.144   7.834
13693SOL    HW153138   5.003   4.212   7.783
13693SOL    HW253139   5.153   4.159   7.817
13694SOL     OW53140   4.012   4.379   8.927
13694SOL    HW153141   4.031   4.303   8.865
13694SOL    HW253142   3.957   4.348   9.004
13695SOL     OW53143   3.856   4.019   8.823
13695SOL    HW153144   3.928   4.008   8.754
13695SOL    HW253145   3.767   3.995   8.783
13696SOL     OW53146   4.740   4.557   8.605
13696SOL    HW153147   4.739   4.539   8.507
13696SOL    HW253148   4.657   4.521   8.647
13697SOL     OW53149   5.343   4.140   7.837
13697SOL    HW153150   5.436   4.105   7.826
13697SOL    HW253151   5.326   4.158   7.934
13698SOL     OW53152   4.590   5.290   8.144
13698SOL    HW153153   4.667   5.227   8.141
13698SOL    HW253154   4.508   5.241   8.175
13699SOL     OW53155   4.537   4.074   7.627
13699SOL    HW153156   4.468   4.098   7.695
13699SOL    HW253157   4.624   4.056   7.672
13700SOL     OW53158   5.456   5.308   8.083
13700SOL    HW153159   5.418   5.394   8.116
13700SOL    HW253160   5.453   5.307   7.983
13701SOL     OW53161   4.555   5.317   9.019
13701SOL    HW153162   4.503   5.258   8.957
13701SOL    HW253163   4.555   5.276   9.110
13702SOL     OW53164   4.986   4.600   8.321
13702SOL    HW153165   4.893   4.566   8.309
13702SOL    HW253166   4.983   4.693   8.356
13703SOL     OW53167   4.959   5.063   8.834
13703SOL    HW153168   4.998   5.152   8.857
13703SOL    HW253169   4.859   5.068   8.838
13704SOL     OW53170   5.340   5.478   7.589
13704SOL    HW153171   5.434   5.512   7.589
13704SOL    HW253172   5.316   5.446   7.498
13705SOL     OW53173   4.543   4.466   8.782
13705SOL    HW153174   4.531   4.553   8.831
13705SOL    HW253175   4.587   4.400   8.843
13706SOL     OW53176   3.769   5.530   8.778
13706SOL    HW153177   3.718   5.616   8.773
13706SOL    HW253178   3.754   5.488   8.868
13707SOL     OW53179   4.585   4.503   7.748
13707SOL    HW153180   4.495   4.542   7.765
13707SOL    HW253181   4.583   4.449   7.663
13708SOL     OW53182   4.028   4.257   8.371
13708SOL    HW153183   4.053   4.263   8.274
13708SOL    HW253184   4.092   4.196   8.418
13709SOL     OW53185   3.975   5.424   7.662
13709SOL    HW153186   4.067   5.385   7.649
13709SOL    HW253187   3.975   5.481   7.744
13710SOL     OW53188   5.039   5.460   8.546
13710SOL    HW153189   5.069   5.474   8.451
13710SOL    HW253190   4.960   5.399   8.547
13711SOL     OW53191   3.705   4.891   8.350
13711SOL    HW153192   3.633   4.881   8.282
13711SOL    HW253193   3.717   4.805   8.399
13712SOL     OW53194   4.570   3.668   7.731
13712SOL    HW153195   4.498   3.611   7.691
13712SOL    HW253196   4.537   3.762   7.740
13713SOL     OW53197   5.275   3.988   8.936
13713SOL    HW153198   5.233   4.077   8.957
13713SOL    HW253199   5.343   3.966   9.006
13714SOL     OW53200   4.955   3.926   8.291
13714SOL    HW153201   4.973   3.979   8.209
13714SOL    HW253202   4.998   3.971   8.370
13715SOL     OW53203   5.137   3.752   7.567
13715SOL    HW153204   5.231   3.716   7.567
13715SOL    HW253205   5.072   3.676   7.567
13716SOL     OW53206   5.202   3.715   8.961
13716SOL    HW153207   5.218   3.672   8.872
13716SOL    HW253208   5.222   3.813   8.955
13717SOL     OW53209   4.371   4.063   8.094
13717SOL    HW153210   4.353   3.993   8.164
13717SOL    HW253211   4.470   4.078   8.087
13718SOL     OW53212   5.011   4.358   8.485
13718SOL    HW153213   5.007   4.430   8.415
13718SOL    HW253214   5.061   4.392   8.564
13719SOL     OW53215   5.288   3.740   7.849
13719SOL    HW153216   5.307   3.698   7.761
13719SOL    HW253217   5.198   3.783   7.848
13720SOL     OW53218   4.298   5.113   9.159
13720SOL    HW153219   4.256   5.176   9.094
13720SOL    HW253220   4.382   5.153   9.196
13721SOL     OW53221   4.106   4.806   9.002
13721SOL    HW153222   4.175   4.771   8.938
13721SOL    HW253223   4.091   4.903   8.983
13722SOL     OW53224   3.818   5.072   8.521
13722SOL    HW153225   3.790   5.012   8.446
13722SOL    HW253226   3.744   5.079   8.588
13723SOL     OW53227   4.812   4.245   8.230
13723SOL    HW153228   4.899   4.210   8.194
13723SOL    HW253229   4.801   4.215   8.325
13724SOL     OW53230   5.497   4.320   9.021
13724SOL    HW153231   5.493   4.412   8.981
13724SOL    HW253232   5.591   4.298   9.045
13725SOL     OW53233   5.080   4.087   8.484
13725SOL    HW153234   5.061   4.184   8.473
13725SOL    HW253235   5.073   4.062   8.580
13726SOL     OW53236   5.404   4.229   9.265
13726SOL    HW153237   5.438   4.260   9.176
13726SOL    HW253238   5.338   4.155   9.252
13727SOL     OW53239   5.234   4.600   8.186
13727SOL    HW153240   5.272   4.510   8.210
13727SOL    HW253241   5.140   4.605   8.220
13728SOL     OW53242   5.478   4.554   8.888
13728SOL    HW153243   5.398   4.614   8.894
13728SOL    HW253244   5.561   4.607   8.903
13729SOL     OW53245   5.294   3.995   7.582
13729SOL    HW153246   5.310   4.034   7.672
13729SOL    HW253247   5.224   3.923   7.588
13730SOL     OW53248   4.429   5.183   8.808
13730SOL    HW153249   4.371   5.260   8.785
13730SOL    HW253250   4.396   5.101   8.762
13731SOL     OW53251   3.823   4.032   9.093
13731SOL    HW153252   3.835   4.027   8.994
13731SOL    HW253253   3.730   4.004   9.117
13732SOL     OW53254   3.741   5.403   9.024
13732SOL    HW153255   3.829   5.421   9.068
13732SOL    HW253256   3.668   5.412   9.091
13733SOL     OW53257   3.917   4.079   8.087
13733SOL    HW153258   3.847   4.110   8.150
13733SOL    HW253259   3.998   4.138   8.095
13734SOL     OW53260   5.088   5.294   8.891
13734SOL    HW153261   5.023   5.357   8.933
13734SOL    HW253262   5.148   5.343   8.829
13735SOL     OW53263   5.454   3.921   8.730
13735SOL    HW153264   5.386   3.952   8.796
13735SOL    HW253265   5.418   3.935   8.637
13736SOL     OW53266   4.163   5.564   8.079
13736SOL    HW153267   4.087   5.558   8.015
13736SOL    HW253268   4.245   5.523   8.039
13737SOL     OW53269   4.059   4.995   8.635
13737SOL    HW153270   4.056   5.019   8.732
13737SOL    HW253271   3.976   5.028   8.590
13738SOL     OW53272   4.855   5.288   9.223
13738SOL    HW153273   4.825   5.196   9.195
13738SOL    HW253274   4.870   5.344   9.141
13739SOL     OW53275   4.228   4.499   8.064
13739SOL    HW153276   4.174   4.568   8.112
13739SOL    HW253277   4.311   4.478   8.117
13740SOL     OW53278   3.740   4.169   8.277
13740SOL    HW153279   3.665   4.234   8.273
13740SOL    HW253280   3.811   4.203   8.338
13741SOL     OW53281   4.834   4.410   7.442
13741SOL    HW153282   4.781   4.469   7.381
13741SOL    HW253283   4.900   4.357   7.389
13742SOL     OW53284   4.576   4.339   7.530
13742SOL    HW153285   4.669   4.344   7.494
13742SOL    HW253286   4.553   4.243   7.548
13743SOL     OW53287   5.046   3.869   7.867
13743SOL    HW153288   4.959   3.847   7.911
13743SOL    HW253289   5.052   3.967   7.851
13744SOL     OW53290   5.127   4.229   8.934
13744SOL    HW153291   5.113   4.317   8.979
13744SOL    HW253292   5.050   4.210   8.873
13745SOL     OW53293   3.753   3.744   7.478
13745SOL    HW153294   3.835   3.697   7.511
13745SOL    HW253295   3.778   3.806   7.404
13746SOL     OW53296   4.003   4.738   8.545
13746SOL    HW153297   4.006   4.678   8.625
13746SOL    HW253298   4.035   4.829   8.570
13747SOL     OW53299   5.528   4.627   7.611
13747SOL    HW153300   5.500   4.537   7.645
13747SOL    HW253301   5.554   4.619   7.514
13748SOL     OW53302   4.336   4.392   8.612
13748SOL    HW153303   4.396   4.419   8.688
13748SOL    HW253304   4.251   4.356   8.649
13749SOL     OW53305   4.545   4.717   8.909
13749SOL    HW153306   4.596   4.766   8.838
13749SOL    HW253307   4.513   4.782   8.977
13750SOL     OW53308   4.871   4.770   9.117
13750SOL    HW153309   4.789   4.714   9.123
13750SOL    HW253310   4.924   4.763   9.201
13751SOL     OW53311   4.786   3.856   7.977
13751SOL    HW153312   4.730   3.907   8.042
13751SOL    HW253313   4.762   3.759   7.981
13752SOL     OW53314   4.896   5.450   9.004
13752SOL    HW153315   4.824   5.470   8.938
13752SOL    HW253316   4.924   5.535   9.049
13753SOL     OW53317   4.392   3.885   8.308
13753SOL    HW153318   4.364   3.798   8.348
13753SOL    HW253319   4.492   3.889   8.304
13754SOL     OW53320   4.013   5.504   8.646
13754SOL    HW153321   3.989   5.442   8.571
13754SOL    HW253322   3.933   5.518   8.704
13755SOL     OW53323   4.717   4.931   8.334
13755SOL    HW153324   4.743   5.003   8.269
13755SOL    HW253325   4.800   4.889   8.372
13756SOL     OW53326   4.425   4.586   8.417
13756SOL    HW153327   4.425   4.531   8.333
13756SOL    HW253328   4.381   4.534   8.490
13757SOL     OW53329   3.745   4.666   8.502
13757SOL    HW153330   3.840   4.695   8.511
13757SOL    HW253331   3.741   4.566   8.492
13758SOL     OW53332   4.370   4.336   9.110
13758SOL    HW153333   4.333   4.396   9.039
13758SOL    HW253334   4.470   4.333   9.101
13759SOL     OW53335   5.436   3.948   8.228
13759SOL    HW153336   5.411   3.956   8.324
13759SOL    HW253337   5.535   3.935   8.220
13760SOL     OW53338   4.497   4.847   8.475
13760SOL    HW153339   4.469   4.756   8.447
13760SOL    HW253340   4.568   4.880   8.413
13761SOL     OW53341   4.863   4.308   7.713
13761SOL    HW153342   4.806   4.373   7.763
13761SOL    HW253343   4.869   4.335   7.617
13762SOL     OW53344   5.235   5.154   9.074
13762SOL    HW153345   5.193   5.073   9.115
13762SOL    HW253346   5.171   5.195   9.009
13763SOL     OW53347   3.943   4.573   8.754
13763SOL    HW153348   3.974   4.499   8.813
13763SOL    HW253349   3.895   4.641   8.808
13764SOL     OW53350   4.383   5.420   8.456
13764SOL    HW153351   4.349   5.367   8.379
13764SOL    HW253352   4.338   5.389   8.540
13765SOL     OW53353   3.724   4.620   9.185
13765SOL    HW153354   3.624   4.622   9.180
13765SOL    HW253355   3.752   4.565   9.264
13766SOL     OW53356   4.678   5.456   8.811
13766SOL    HW153357   4.644   5.397   8.884
13766SOL    HW253358   4.606   5.519   8.782
13767SOL     OW53359   4.965   4.848   8.443
13767SOL    HW153360   4.969   4.948   8.451
13767SOL    HW253361   5.018   4.806   8.517
13768SOL     OW53362   4.242   4.094   9.129
13768SOL    HW153363   4.288   4.029   9.068
13768SOL    HW253364   4.289   4.183   9.124
13769SOL     OW53365   4.316   4.542   7.803
13769SOL    HW153366   4.241   4.528   7.738
13769SOL    HW253367   4.282   4.528   7.896
13770SOL     OW53368   5.350   4.643   8.463
13770SOL    HW153369   5.357   4.713   8.391
13770SOL    HW253370   5.273   4.665   8.522
13771SOL     OW53371   5.068   4.009   8.743
13771SOL    HW153372   5.143   3.999   8.807
13771SOL    HW253373   5.022   3.921   8.730
13772SOL     OW53374   4.164   5.296   8.993
13772SOL    HW153375   4.102   5.357   9.043
13772SOL    HW253376   4.198   5.342   8.911
13773SOL     OW53377   5.465   5.199   8.930
13773SOL    HW153378   5.511   5.282   8.961
13773SOL    HW253379   5.382   5.184   8.985
13774SOL     OW53380   4.765   4.214   8.500
13774SOL    HW153381   4.841   4.277   8.513
13774SOL    HW253382   4.780   4.131   8.555
13775SOL     OW53383   4.030   5.237   8.218
13775SOL    HW153384   4.027   5.139   8.235
13775SOL    HW253385   3.965   5.260   8.145
13776SOL     OW53386   4.800   5.325   8.565
13776SOL    HW153387   4.754   5.341   8.652
13776SOL    HW253388   4.746   5.364   8.490
13777SOL     OW53389   3.991   5.468   9.136
13777SOL    HW153390   4.011   5.566   9.125
13777SOL    HW253391   3.996   5.444   9.233
13778SOL     OW53392   3.817   4.992   9.028
13778SOL    HW153393   3.803   4.898   8.999
13778SOL    HW253394   3.744   5.050   8.992
13779SOL     OW53395   3.917   5.322   8.458
13779SOL    HW153396   3.885   5.231   8.486
13779SOL    HW253397   3.961   5.314   8.368
13780SOL     OW53398   4.673   3.864   8.310
13780SOL    HW153399   4.771   3.883   8.304
13780SOL    HW253400   4.659   3.773   8.348
13781SOL     OW53401   5.313   4.175   8.123
13781SOL    HW153402   5.338   4.253   8.181
13781SOL    HW253403   5.360   4.093   8.155
13782SOL     OW53404   4.481   3.841   7.487
13782SOL    HW153405   4.564   3.785   7.489
13782SOL    HW253406   4.500   3.930   7.531
13783SOL     OW53407   4.145   4.237   8.117
13783SOL    HW153408   4.224   4.176   8.113
13783SOL    HW253409   4.170   4.327   8.084
13784SOL     OW53410   4.291   4.742   8.811
13784SOL    HW153411   4.383   4.726   8.848
13784SOL    HW253412   4.293   4.822   8.751
13785SOL     OW53413   5.466   4.859   8.785
13785SOL    HW153414   5.455   4.951   8.749
13785SOL    HW253415   5.514   4.802   8.719
13786SOL     OW53416   3.887   4.905   7.337
13786SOL    HW153417   3.841   4.945   7.258
13786SOL    HW253418   3.981   4.939   7.343
13787SOL     OW53419   4.230   5.349   7.629
13787SOL    HW153420   4.249   5.436   7.584
13787SOL    HW253421   4.312   5.318   7.678
13788SOL     OW53422   5.015   4.802   8.882
13788SOL    HW153423   4.964   4.773   8.962
13788SOL    HW253424   4.993   4.898   8.861
13789SOL     OW53425   4.259   5.410   8.747
13789SOL    HW153426   4.321   5.488   8.751
13789SOL    HW253427   4.170   5.439   8.711
13790SOL     OW53428   3.882   4.294   9.153
13790SOL    HW153429   3.872   4.195   9.144
13790SOL    HW253430   3.964   4.314   9.207
13791SOL     OW53431   5.351   5.260   8.462
13791SOL    HW153432   5.392   5.350   8.476
13791SOL    HW253433   5.377   5.200   8.537
13792SOL     OW53434   4.258   4.493   8.924
13792SOL    HW153435   4.164   4.457   8.927
13792SOL    HW253436   4.258   4.579   8.872
13793SOL     OW53437   5.354   4.853   8.276
13793SOL    HW153438   5.332   4.949   8.256
13793SOL    HW253439   5.302   4.794   8.214
13794SOL     OW53440   4.485   4.255   8.429
13794SOL    HW153441   4.580   4.237   8.454
13794SOL    HW253442   4.440   4.308   8.501
13795SOL     OW53443   4.333   4.971   8.658
13795SOL    HW153444   4.238   4.985   8.630
13795SOL    HW253445   4.386   4.934   8.582
13796SOL     OW53446   3.863   4.390   8.553
13796SOL    HW153447   3.900   4.464   8.610
13796SOL    HW253448   3.928   4.368   8.481
13797SOL     OW53449   4.049   5.062   8.904
13797SOL    HW153450   4.092   5.146   8.935
13797SOL    HW253451   3.961   5.050   8.949
13798SOL     OW53452   5.331   5.392   9.176
13798SOL    HW153453   5.294   5.301   9.153
13798SOL    HW253454   5.305   5.457   9.104
13799SOL     OW53455   4.353   4.139   7.828
13799SOL    HW153456   4.261   4.141   7.789
13799SOL    HW253457   4.351   4.097   7.918
13800SOL     OW53458   5.305   3.725   8.124
13800SOL    HW153459   5.291   3.735   8.025
13800SOL    HW253460   5.351   3.806   8.159
13801SOL     OW53461   4.895   4.416   8.793
13801SOL    HW153462   4.991   4.434   8.774
13801SOL    HW253463   4.838   4.468   8.728
13802SOL     OW53464   4.452   4.410   8.202
13802SOL    HW153465   4.463   4.339   8.271
13802SOL    HW253466   4.486   4.377   8.114
13803SOL     OW53467   4.974   5.123   8.466
13803SOL    HW153468   4.904   5.179   8.510
13803SOL    HW253469   5.003   5.165   8.380
13804SOL     OW53470   5.036   4.130   8.111
13804SOL    HW153471   5.023   4.132   8.012
13804SOL    HW253472   5.133   4.146   8.133
13805SOL     OW53473   4.814   5.112   0.028
13805SOL    HW153474   4.890   5.050   0.009
13805SOL    HW253475   4.764   5.132   9.944
13806SOL     OW53476   5.334   4.932   9.811
13806SOL    HW153477   5.364   4.977   9.895
13806SOL    HW253478   5.413   4.893   9.764
13807SOL     OW53479   4.035   3.972   9.245
13807SOL    HW153480   3.952   3.985   9.192
13807SOL    HW253481   4.111   4.020   9.200
13808SOL     OW53482   4.264   5.191   9.608
13808SOL    HW153483   4.207   5.216   9.687
13808SOL    HW253484   4.340   5.134   9.639
13809SOL     OW53485   4.234   3.873   9.408
13809SOL    HW153486   4.324   3.908   9.381
13809SOL    HW253487   4.164   3.913   9.349
13810SOL     OW53488   4.117   4.944   9.899
13810SOL    HW153489   4.057   4.934   9.979
13810SOL    HW253490   4.212   4.927   9.927
13811SOL     OW53491   4.483   4.316   9.733
13811SOL    HW153492   4.486   4.409   9.696
13811SOL    HW253493   4.499   4.251   9.659
13812SOL     OW53494   4.133   5.096   9.378
13812SOL    HW153495   4.191   5.106   9.298
13812SOL    HW253496   4.176   5.140   9.457
13813SOL     OW53497   4.017   4.510   9.769
13813SOL    HW153498   4.040   4.454   9.848
13813SOL    HW253499   3.927   4.552   9.783
13814SOL     OW53500   4.649   5.430   9.875
13814SOL    HW153501   4.663   5.333   9.858
13814SOL    HW253502   4.595   5.470   9.802
13815SOL     OW53503   5.446   5.272   9.606
13815SOL    HW153504   5.523   5.219   9.570
13815SOL    HW253505   5.419   5.341   9.540
13816SOL     OW53506   4.769   3.969   9.579
13816SOL    HW153507   4.859   3.969   9.534
13816SOL    HW253508   4.778   3.931   9.671
13817SOL     OW53509   4.135   4.403   9.262
13817SOL    HW153510   4.133   4.502   9.250
13817SOL    HW253511   4.215   4.365   9.216
13818SOL     OW53512   5.471   5.073   0.033
13818SOL    HW153513   5.405   5.080   0.107
13818SOL    HW253514   5.464   5.153   9.974
13819SOL     OW53515   3.988   4.977   9.661
13819SOL    HW153516   4.036   4.967   9.748
13819SOL    HW253517   4.033   4.920   9.592
13820SOL     OW53518   4.095   3.939   9.705
13820SOL    HW153519   4.059   3.985   9.787
13820SOL    HW253520   4.063   3.987   9.624
13821SOL     OW53521   5.607   5.507   0.250
13821SOL    HW153522   5.582   5.553   0.335
13821SOL    HW253523   5.685   5.446   0.267
13822SOL     OW53524   4.630   4.160   9.904
13822SOL    HW153525   4.718   4.196   9.936
13822SOL    HW253526   4.585   4.228   9.845
13823SOL     OW53527   4.940   4.675   9.384
13823SOL    HW153528   4.960   4.640   9.475
13823SOL    HW253529   4.897   4.603   9.329
13824SOL     OW53530   5.433   4.338   9.513
13824SOL    HW153531   5.429   4.297   9.422
13824SOL    HW253532   5.409   4.269   9.581
13825SOL     OW53533   4.702   5.473   9.380
13825SOL    HW153534   4.744   5.409   9.316
13825SOL    HW253535   4.705   5.436   9.472
13826SOL     OW53536   3.740   4.335   9.783
13826SOL    HW153537   3.720   4.303   9.876
13826SOL    HW253538   3.759   4.433   9.784
13827SOL     OW53539   3.884   5.222   9.577
13827SOL    HW153540   3.921   5.132   9.598
13827SOL    HW253541   3.939   5.265   9.505
13828SOL     OW53542   3.870   5.313   9.839
13828SOL    HW153543   3.778   5.299   9.875
13828SOL    HW253544   3.871   5.296   9.741
13829SOL     OW53545   4.163   4.678   9.243
13829SOL    HW153546   4.137   4.724   9.158
13829SOL    HW253547   4.143   4.738   9.320
13830SOL     OW53548   3.781   4.497   9.423
13830SOL    HW153549   3.860   4.439   9.443
13830SOL    HW253550   3.700   4.459   9.467
13831SOL     OW53551   5.280   4.543   9.624
13831SOL    HW153552   5.337   4.468   9.590
13831SOL    HW253553   5.288   4.621   9.563
13832SOL     OW53554   4.425   4.603   9.283
13832SOL    HW153555   4.435   4.507   9.313
13832SOL    HW253556   4.329   4.624   9.268
13833SOL     OW53557   5.062   4.136   9.661
13833SOL    HW153558   5.012   4.182   9.588
13833SOL    HW253559   5.161   4.147   9.646
13834SOL     OW53560   5.342   4.118   9.674
13834SOL    HW153561   5.436   4.092   9.651
13834SOL    HW253562   5.336   4.133   9.773
13835SOL     OW53563   4.536   4.111   9.548
13835SOL    HW153564   4.469   4.053   9.595
13835SOL    HW253565   4.628   4.074   9.562
13836SOL     OW53566   4.660   4.994   9.390
13836SOL    HW153567   4.719   4.971   9.467
13836SOL    HW253568   4.715   4.999   9.306
13837SOL     OW53569   5.434   5.291   9.878
13837SOL    HW153570   5.382   5.373   9.904
13837SOL    HW253571   5.428   5.277   9.780
13838SOL     OW53572   4.852   4.539   9.836
13838SOL    HW153573   4.926   4.594   9.874
13838SOL    HW253574   4.776   4.599   9.811
13839SOL     OW53575   5.052   4.685   9.941
13839SOL    HW153576   5.008   4.684   0.031
13839SOL    HW253577   5.063   4.779   9.910
13840SOL     OW53578   4.635   4.696   9.773
13840SOL    HW153579   4.585   4.651   9.700
13840SOL    HW253580   4.584   4.687   9.859
13841SOL     OW53581   3.753   4.090   9.650
13841SOL    HW153582   3.833   4.082   9.590
13841SOL    HW253583   3.759   4.175   9.703
13842SOL     OW53584   5.362   5.477   9.432
13842SOL    HW153585   5.436   5.543   9.422
13842SOL    HW253586   5.339   5.439   9.343
13843SOL     OW53587   4.484   4.560   9.588
13843SOL    HW153588   4.385   4.570   9.590
13843SOL    HW253589   4.510   4.499   9.513
13844SOL     OW53590   4.017   5.459   9.412
13844SOL    HW153591   4.108   5.495   9.392
13844SOL    HW253592   3.990   5.488   9.504
13845SOL     OW53593   4.473   3.684   9.633
13845SOL    HW153594   4.550   3.693   9.571
13845SOL    HW253595   4.435   3.774   9.653
13846SOL     OW53596   3.731   4.860   9.702
13846SOL    HW153597   3.808   4.922   9.718
13846SOL    HW253598   3.733   4.828   9.607
13847SOL     OW53599   4.439   3.981   9.969
13847SOL    HW153600   4.470   3.920   0.042
13847SOL    HW253601   4.514   4.042   9.943
13848SOL     OW53602   5.286   3.727   9.718
13848SOL    HW153603   5.292   3.667   9.638
13848SOL    HW253604   5.198   3.773   9.719
13849SOL     OW53605   5.003   4.520   9.607
13849SOL    HW153606   4.950   4.521   9.692
13849SOL    HW253607   5.101   4.528   9.628
13850SOL     OW53608   5.307   4.589   9.896
13850SOL    HW153609   5.305   4.570   9.798
13850SOL    HW253610   5.217   4.617   9.926
13851SOL     OW53611   5.256   3.919   9.483
13851SOL    HW153612   5.283   3.971   9.564
13851SOL    HW253613   5.297   3.828   9.486
13852SOL     OW53614   4.005   4.352   9.499
13852SOL    HW153615   4.066   4.375   9.423
13852SOL    HW253616   4.033   4.402   9.580
13853SOL     OW53617   4.036   5.520   9.908
13853SOL    HW153618   3.965   5.450   9.895
13853SOL    HW253619   4.125   5.475   9.917
13854SOL     OW53620   4.455   5.022   9.716
13854SOL    HW153621   4.461   4.953   9.644
13854SOL    HW253622   4.428   4.979   9.802
13855SOL     OW53623   3.978   4.079   9.497
13855SOL    HW153624   3.996   4.039   9.407
13855SOL    HW253625   3.991   4.178   9.493
13856SOL     OW53626   3.679   4.281   0.041
13856SOL    HW153627   3.702   4.363   0.094
13856SOL    HW253628   3.699   4.200   0.096
13857SOL     OW53629   4.181   4.845   9.475
13857SOL    HW153630   4.280   4.846   9.489
13857SOL    HW253631   4.152   4.932   9.435
13858SOL     OW53632   4.854   4.453   9.233
13858SOL    HW153633   4.773   4.496   9.192
13858SOL    HW253634   4.927   4.446   9.165
13859SOL     OW53635   4.554   4.362   9.404
13859SOL    HW153636   4.644   4.361   9.360
13859SOL    HW253637   4.534   4.271   9.440
13860SOL     OW53638   5.052   3.863   9.721
13860SOL    HW153639   4.964   3.837   9.761
13860SOL    HW253640   5.053   3.962   9.706
13861SOL     OW53641   3.701   3.767   9.363
13861SOL    HW153642   3.783   3.732   9.318
13861SOL    HW253643   3.722   3.789   9.459
13862SOL     OW53644   5.312   4.728   9.426
13862SOL    HW153645   5.403   4.766   9.434
13862SOL    HW253646   5.291   4.710   9.330
13863SOL     OW53647   4.795   3.820   9.812
13863SOL    HW153648   4.806   3.864   9.901
13863SOL    HW253649   4.744   3.735   9.822
13864SOL     OW53650   3.957   3.701   9.643
13864SOL    HW153651   4.022   3.774   9.664
13864SOL    HW253652   3.864   3.738   9.642
13865SOL     OW53653   3.778   4.775   9.449
13865SOL    HW153654   3.796   4.679   9.432
13865SOL    HW253655   3.832   4.831   9.386
13866SOL     OW53656   5.442   3.931   0.092
13866SOL    HW153657   5.361   3.947   0.149
13866SOL    HW253658   5.520   3.909   0.151
13867SOL     OW53659   4.925   4.301   9.460
13867SOL    HW153660   4.950   4.373   9.524
13867SOL    HW253661   4.896   4.342   9.373
13868SOL     OW53662   4.522   5.215   9.276
13868SOL    HW153663   4.492   5.281   9.344
13868SOL    HW253664   4.572   5.141   9.322
13869SOL     OW53665   4.386   4.905   9.957
13869SOL    HW153666   4.404   4.971   0.030
13869SOL    HW253667   4.432   4.819   9.978
13870SOL     OW53668   4.684   5.168   9.789
13870SOL    HW153669   4.737   5.187   9.707
13870SOL    HW253670   4.602   5.117   9.764
13871SOL     OW53671   4.215   4.596   9.598
13871SOL    HW153672   4.187   4.682   9.555
13871SOL    HW253673   4.146   4.568   9.664
13872SOL     OW53674   3.708   3.817   9.636
13872SOL    HW153675   3.618   3.787   9.669
13872SOL    HW253676   3.720   3.914   9.657
13873SOL     OW53677   4.127   5.220   9.845
13873SOL    HW153678   4.131   5.124   9.873
13873SOL    HW253679   4.032   5.252   9.851
13874SOL     OW53680   4.787   4.892   9.626
13874SOL    HW153681   4.874   4.908   9.672
13874SOL    HW253682   4.731   4.830   9.681
13875SOL     OW53683   5.359   4.151   9.946
13875SOL    HW153684   5.420   4.222   9.980
13875SOL    HW253685   5.382   4.064   9.989
13876SOL     OW53686   4.455   4.846   9.500
13876SOL    HW153687   4.526   4.898   9.453
13876SOL    HW253688   4.482   4.749   9.503
13877SOL     OW53689   4.516   3.897   9.355
13877SOL    HW153690   4.580   3.828   9.390
13877SOL    HW253691   4.534   3.984   9.399
13878SOL     OW53692   4.302   4.224   9.922
13878SOL    HW153693   4.346   4.142   9.958
13878SOL    HW253694   4.360   4.266   9.852
13879SOL     OW53695   3.921   4.939   9.284
13879SOL    HW153696   3.883   4.964   9.195
13879SOL    HW253697   3.987   5.008   9.313
13880SOL     OW53698   4.394   5.378   9.459
13880SOL    HW153699   4.333   5.447   9.420
13880SOL    HW253700   4.341   5.315   9.515
13881SOL     OW53701   3.751   4.609   9.818
13881SOL    HW153702   3.752   4.699   9.774
13881SOL    HW253703   3.669   4.600   9.874
13882SOL     OW53704   5.066   4.910   9.729
13882SOL    HW153705   5.159   4.921   9.766
13882SOL    HW253706   5.071   4.905   9.629
13883SOL     OW53707   4.377   3.938   9.698
13883SOL    HW153708   4.278   3.933   9.687
13883SOL    HW253709   4.399   3.948   9.795
13884SOL     OW53710   5.362   3.694   9.980
13884SOL    HW153711   5.322   3.700   9.888
13884SOL    HW253712   5.395   3.785   0.007
13885SOL     OW53713   5.077   4.202   9.931
13885SOL    HW153714   5.061   4.173   9.837
13885SOL    HW253715   5.173   4.187   9.955
13886SOL     OW53716   4.776   6.997   0.772
13886SOL    HW153717   4.874   7.017   0.772
13886SOL    HW253718   4.738   7.017   0.682
13887SOL     OW53719   5.308   6.790   0.539
13887SOL    HW153720   5.316   6.858   0.611
13887SOL    HW253721   5.397   6.747   0.524
13888SOL     OW53722   5.305   6.199   1.386
13888SOL    HW153723   5.238   6.147   1.438
13888SOL    HW253724   5.362   6.253   1.449
13889SOL     OW53725   4.081   5.769   0.015
13889SOL    HW153726   4.041   5.685   9.978
13889SOL    HW253727   4.111   5.827   9.940
13890SOL     OW53728   5.049   7.056   0.799
13890SOL    HW153729   5.067   7.154   0.812
13890SOL    HW253730   5.135   7.009   0.778
13891SOL     OW53731   4.895   5.578   1.315
13891SOL    HW153732   4.813   5.531   1.348
13891SOL    HW253733   4.944   5.518   1.252
13892SOL     OW53734   4.647   6.433   1.730
13892SOL    HW153735   4.605   6.449   1.640
13892SOL    HW253736   4.577   6.438   1.801
13893SOL     OW53737   4.246   7.002   0.459
13893SOL    HW153738   4.207   7.022   0.549
13893SOL    HW253739   4.333   6.954   0.470
13894SOL     OW53740   4.245   5.561   0.123
13894SOL    HW153741   4.327   5.605   0.159
13894SOL    HW253742   4.184   5.631   0.085
13895SOL     OW53743   5.283   6.593   1.534
13895SOL    HW153744   5.189   6.617   1.514
13895SOL    HW253745   5.341   6.615   1.455
13896SOL     OW53746   5.108   6.604   1.220
13896SOL    HW153747   5.064   6.608   1.310
13896SOL    HW253748   5.152   6.692   1.200
13897SOL     OW53749   4.684   6.906   1.456
13897SOL    HW153750   4.604   6.965   1.440
13897SOL    HW253751   4.674   6.823   1.402
13898SOL     OW53752   4.127   6.731   0.709
13898SOL    HW153753   4.079   6.688   0.785
13898SOL    HW253754   4.224   6.707   0.712
13899SOL     OW53755   4.426   6.175   0.585
13899SOL    HW153756   4.443   6.246   0.517
13899SOL    HW253757   4.390   6.093   0.540
13900SOL     OW53758   4.965   6.079   1.748
13900SOL    HW153759   5.059   6.063   1.778
13900SOL    HW253760   4.909   5.998   1.766
13901SOL     OW53761   4.212   5.810   1.009
13901SOL    HW153762   4.248   5.900   0.983
13901SOL    HW253763   4.272   5.739   0.973
13902SOL     OW53764   4.000   6.297   0.505
13902SOL    HW153765   4.037   6.327   0.593
13902SOL    HW253766   3.903   6.277   0.515
13903SOL     OW53767   4.530   7.252   0.684
13903SOL    HW153768   4.578   7.191   0.621
13903SOL    HW253769   4.592   7.324   0.715
13904SOL     OW53770   5.350   7.145   0.390
13904SOL    HW153771   5.435   7.169   0.343
13904SOL    HW253772   5.272   7.182   0.340
13905SOL     OW53773   5.365   5.859   1.109
13905SOL    HW153774   5.401   5.951   1.127
13905SOL    HW253775   5.265   5.861   1.112
13906SOL     OW53776   4.760   5.897   0.333
13906SOL    HW153777   4.820   5.977   0.333
13906SOL    HW253778   4.769   5.849   0.420
13907SOL     OW53779   3.888   6.555   1.578
13907SOL    HW153780   3.976   6.581   1.619
13907SOL    HW253781   3.831   6.509   1.646
13908SOL     OW53782   4.109   6.221   0.045
13908SOL    HW153783   4.146   6.312   0.029
13908SOL    HW253784   4.165   6.154   9.997
13909SOL     OW53785   4.347   7.104   0.824
13909SOL    HW153786   4.401   7.164   0.765
13909SOL    HW253787   4.266   7.073   0.774
13910SOL     OW53788   4.661   6.152   1.545
13910SOL    HW153789   4.705   6.086   1.607
13910SOL    HW253790   4.731   6.203   1.495
13911SOL     OW53791   5.317   6.962   0.782
13911SOL    HW153792   5.327   6.986   0.879
13911SOL    HW253793   5.368   7.026   0.726
13912SOL     OW53794   3.972   6.725   0.476
13912SOL    HW153795   4.019   6.725   0.565
13912SOL    HW253796   4.033   6.686   0.407
13913SOL     OW53797   4.847   5.786   0.087
13913SOL    HW153798   4.941   5.762   0.113
13913SOL    HW253799   4.800   5.824   0.166
13914SOL     OW53800   4.048   6.081   1.186
13914SOL    HW153801   4.039   5.985   1.212
13914SOL    HW253802   3.959   6.127   1.196
13915SOL     OW53803   5.093   6.330   1.273
13915SOL    HW153804   5.107   6.427   1.255
13915SOL    HW253805   5.177   6.291   1.311
13916SOL     OW53806   4.091   5.806   0.471
13916SOL    HW153807   4.033   5.836   0.547
13916SOL    HW253808   4.049   5.833   0.385
13917SOL     OW53809   5.240   7.265   1.309
13917SOL    HW153810   5.173   7.281   1.236
13917SOL    HW253811   5.332   7.263   1.270
13918SOL     OW53812   5.446   6.112   1.172
13918SOL    HW153813   5.539   6.147   1.179
13918SOL    HW253814   5.393   6.142   1.252
13919SOL     OW53815   5.512   7.246   1.183
13919SOL    HW153816   5.561   7.273   1.267
13919SOL    HW253817   5.578   7.231   1.110
13920SOL     OW53818   4.658   6.028   0.658
13920SOL    HW153819   4.715   6.075   0.726
13920SOL    HW253820   4.581   6.086   0.634
13921SOL     OW53821   4.919   6.554   0.181
13921SOL    HW153822   4.965   6.481   0.231
13921SOL    HW253823   4.848   6.594   0.239
13922SOL     OW53824   4.794   5.872   1.802
13922SOL    HW153825   4.825   5.841   1.892
13922SOL    HW253826   4.695   5.866   1.797
13923SOL     OW53827   5.450   6.180   0.358
13923SOL    HW153828   5.387   6.106   0.384
13923SOL    HW253829   5.513   6.198   0.433
13924SOL     OW53830   4.912   7.294   0.059
13924SOL    HW153831   4.943   7.340   9.975
13924SOL    HW253832   4.812   7.290   0.059
13925SOL     OW53833   4.475   5.579   1.740
13925SOL    HW153834   4.490   5.486   1.706
13925SOL    HW253835   4.484   5.580   1.840
13926SOL     OW53836   5.370   6.217   0.932
13926SOL    HW153837   5.327   6.307   0.942
13926SOL    HW253838   5.389   6.179   1.023
13927SOL     OW53839   4.779   6.864   1.722
13927SOL    HW153840   4.822   6.774   1.715
13927SOL    HW253841   4.733   6.887   1.637
13928SOL     OW53842   4.469   6.707   1.720
13928SOL    HW153843   4.400   6.779   1.734
13928SOL    HW253844   4.524   6.699   1.803
13929SOL     OW53845   5.095   5.504   0.883
13929SOL    HW153846   5.048   5.592   0.889
13929SOL    HW253847   5.183   5.517   0.838
13930SOL     OW53848   5.414   5.760   1.773
13930SOL    HW153849   5.378   5.789   1.862
13930SOL    HW253850   5.388   5.665   1.756
13931SOL     OW53851   3.745   6.247   0.598
13931SOL    HW153852   3.780   6.188   0.671
13931SOL    HW253853   3.712   6.333   0.637
13932SOL     OW53854   3.996   5.708   0.860
13932SOL    HW153855   4.065   5.751   0.917
13932SOL    HW253856   4.009   5.609   0.859
13933SOL     OW53857   4.052   5.795   1.236
13933SOL    HW153858   4.033   5.699   1.254
13933SOL    HW253859   4.113   5.803   1.157
13934SOL     OW53860   4.707   6.363   0.936
13934SOL    HW153861   4.614   6.359   0.897
13934SOL    HW253862   4.761   6.288   0.899
13935SOL     OW53863   3.997   6.970   0.350
13935SOL    HW153864   3.971   6.890   0.405
13935SOL    HW253865   4.089   7.000   0.377
13936SOL     OW53866   5.152   6.884   1.237
13936SOL    HW153867   5.103   6.914   1.155
13936SOL    HW253868   5.095   6.902   1.317
13937SOL     OW53869   3.888   7.119   0.619
13937SOL    HW153870   3.793   7.126   0.651
13937SOL    HW253871   3.889   7.101   0.520
13938SOL     OW53872   5.423   6.903   1.270
13938SOL    HW153873   5.455   6.939   1.358
13938SOL    HW253874   5.323   6.899   1.270
13939SOL     OW53875   4.199   6.488   0.033
13939SOL    HW153876   4.186   6.562   9.967
13939SOL    HW253877   4.175   6.520   0.124
13940SOL     OW53878   4.640   6.677   1.299
13940SOL    HW153879   4.685   6.592   1.271
13940SOL    HW253880   4.581   6.710   1.226
13941SOL     OW53881   3.714   6.307   0.226
13941SOL    HW153882   3.803   6.265   0.237
13941SOL    HW253883   3.650   6.270   0.294
13942SOL     OW53884   5.296   6.411   0.393
13942SOL    HW153885   5.343   6.323   0.381
13942SOL    HW253886   5.348   6.483   0.346
13943SOL     OW53887   4.431   7.320   1.030
13943SOL    HW153888   4.497   7.252   0.998
13943SOL    HW253889   4.353   7.274   1.073
13944SOL     OW53890   4.471   6.442   0.043
13944SOL    HW153891   4.496   6.357   0.089
13944SOL    HW253892   4.371   6.448   0.038
13945SOL     OW53893   5.053   5.955   0.461
13945SOL    HW153894   5.011   6.020   0.398
13945SOL    HW253895   5.152   5.970   0.463
13946SOL     OW53896   3.961   6.157   1.499
13946SOL    HW153897   3.932   6.067   1.465
13946SOL    HW253898   3.941   6.164   1.597
13947SOL     OW53899   3.878   5.893   1.433
13947SOL    HW153900   3.946   5.856   1.370
13947SOL    HW253901   3.786   5.865   1.404
13948SOL     OW53902   4.697   6.423   1.203
13948SOL    HW153903   4.707   6.407   1.105
13948SOL    HW253904   4.618   6.373   1.238
13949SOL     OW53905   5.323   5.970   0.492
13949SOL    HW153906   5.416   5.936   0.484
13949SOL    HW253907   5.304   5.995   0.587
13950SOL     OW53908   4.591   7.095   0.951
13950SOL    HW153909   4.662   7.065   0.887
13950SOL    HW253910   4.501   7.081   0.910
13951SOL     OW53911   4.507   5.960   0.269
13951SOL    HW153912   4.446   5.950   0.348
13951SOL    HW253913   4.601   5.941   0.298
13952SOL     OW53914   4.657   6.805   0.203
13952SOL    HW153915   4.706   6.757   0.277
13952SOL    HW253916   4.692   6.898   0.195
13953SOL     OW53917   5.446   7.158   0.645
13953SOL    HW153918   5.409   7.244   0.681
13953SOL    HW253919   5.415   7.145   0.551
13954SOL     OW53920   4.893   6.423   0.588
13954SOL    HW153921   4.934   6.441   0.677
13954SOL    HW253922   4.796   6.448   0.590
13955SOL     OW53923   4.521   7.210   1.606
13955SOL    HW153924   4.489   7.151   1.531
13955SOL    HW253925   4.514   7.160   1.692
13956SOL     OW53926   5.025   6.489   0.823
13956SOL    HW153927   5.101   6.463   0.882
13956SOL    HW253928   4.968   6.557   0.871
13957SOL     OW53929   4.001   6.602   0.913
13957SOL    HW153930   3.906   6.628   0.929
13957SOL    HW253931   4.045   6.581   1.000
13958SOL     OW53932   4.626   6.514   0.563
13958SOL    HW153933   4.571   6.456   0.503
13958SOL    HW253934   4.567   6.557   0.631
13959SOL     OW53935   4.964   6.935   1.437
13959SOL    HW153936   4.998   7.025   1.467
13959SOL    HW253937   4.865   6.935   1.440
13960SOL     OW53938   3.760   5.873   0.436
13960SOL    HW153939   3.823   5.889   0.361
13960SOL    HW253940   3.809   5.879   0.523
13961SOL     OW53941   5.337   7.389   0.192
13961SOL    HW153942   5.423   7.343   0.213
13961SOL    HW253943   5.340   7.425   0.098
13962SOL     OW53944   4.506   6.302   1.365
13962SOL    HW153945   4.492   6.385   1.419
13962SOL    HW253946   4.554   6.234   1.420
13963SOL     OW53947   3.697   7.336   1.362
13963SOL    HW153948   3.659   7.428   1.371
13963SOL    HW253949   3.711   7.297   1.453
13964SOL     OW53950   4.473   6.368   0.383
13964SOL    HW153951   4.374   6.377   0.371
13964SOL    HW253952   4.512   6.315   0.308
13965SOL     OW53953   4.084   6.155   0.924
13965SOL    HW153954   4.158   6.105   0.879
13965SOL    HW253955   4.083   6.133   1.022
13966SOL     OW53956   5.047   7.298   1.112
13966SOL    HW153957   5.087   7.301   1.021
13966SOL    HW253958   4.968   7.237   1.112
13967SOL     OW53959   3.747   6.667   1.000
13967SOL    HW153960   3.663   6.685   0.949
13967SOL    HW253961   3.725   6.611   1.080
13968SOL     OW53962   4.378   5.508   0.443
13968SOL    HW153963   4.410   5.583   0.385
13968SOL    HW253964   4.280   5.517   0.459
13969SOL     OW53965   3.692   6.678   0.496
13969SOL    HW153966   3.789   6.700   0.493
13969SOL    HW253967   3.663   6.642   0.407
13970SOL     OW53968   5.274   5.841   1.547
13970SOL    HW153969   5.223   5.927   1.540
13970SOL    HW253970   5.321   5.837   1.635
13971SOL     OW53971   4.987   5.758   0.912
13971SOL    HW153972   4.995   5.828   0.841
13971SOL    HW253973   5.025   5.794   0.998
13972SOL     OW53974   5.078   5.674   0.202
13972SOL    HW153975   5.075   5.584   0.160
13972SOL    HW253976   5.037   5.670   0.294
13973SOL     OW53977   5.297   5.563   1.566
13973SOL    HW153978   5.284   5.517   1.478
13973SOL    HW253979   5.278   5.661   1.556
13974SOL     OW53980   4.448   5.829   0.723
13974SOL    HW153981   4.430   5.749   0.780
13974SOL    HW253982   4.544   5.856   0.735
13975SOL     OW53983   4.992   6.143   1.105
13975SOL    HW153984   4.975   6.187   1.017
13975SOL    HW253985   5.027   6.211   1.170
13976SOL     OW53986   5.259   5.578   0.469
13976SOL    HW153987   5.274   5.538   0.378
13976SOL    HW253988   5.166   5.614   0.474
13977SOL     OW53989   4.279   6.924   1.758
13977SOL    HW153990   4.226   6.983   1.697
13977SOL    HW253991   4.361   6.973   1.788
13978SOL     OW53992   4.132   6.646   1.675
13978SOL    HW153993   4.176   6.628   1.587
13978SOL    HW253994   4.156   6.739   1.706
13979SOL     OW53995   3.814   6.904   1.120
13979SOL    HW153996   3.796   6.824   1.063
13979SOL    HW253997   3.733   6.924   1.176
13980SOL     OW53998   4.827   6.123   0.856
13980SOL    HW153999   4.901   6.072   0.812
13980SOL    HW254000   4.792   6.070   0.934
13981SOL     OW54001   5.448   6.166   1.730
13981SOL    HW154002   5.441   6.240   1.663
13981SOL    HW254003   5.544   6.142   1.744
13982SOL     OW54004   5.092   5.889   1.133
13982SOL    HW154005   5.062   5.984   1.121
13982SOL    HW254006   5.067   5.858   1.225
13983SOL     OW54007   5.223   6.029   1.815
13983SOL    HW154008   5.305   6.079   1.784
13983SOL    HW254009   5.249   5.966   1.888
13984SOL     OW54010   5.024   6.372   0.356
13984SOL    HW154011   4.977   6.391   0.441
13984SOL    HW254012   5.123   6.385   0.368
13985SOL     OW54013   5.255   6.492   0.657
13985SOL    HW154014   5.258   6.466   0.561
13985SOL    HW254015   5.160   6.487   0.690
13986SOL     OW54016   5.451   6.370   1.541
13986SOL    HW154017   5.389   6.447   1.530
13986SOL    HW254018   5.545   6.404   1.545
13987SOL     OW54019   5.313   5.816   0.246
13987SOL    HW154020   5.308   5.862   0.334
13987SOL    HW254021   5.226   5.771   0.226
13988SOL     OW54022   4.424   7.054   1.403
13988SOL    HW154023   4.359   7.128   1.390
13988SOL    HW254024   4.389   6.970   1.360
13989SOL     OW54025   3.834   5.860   1.709
13989SOL    HW154026   3.841   5.869   1.610
13989SOL    HW254027   3.739   5.841   1.733
13990SOL     OW54028   3.724   7.225   1.613
13990SOL    HW154029   3.816   7.233   1.651
13990SOL    HW254030   3.657   7.249   1.683
13991SOL     OW54031   3.905   5.878   0.667
13991SOL    HW154032   3.874   5.959   0.716
13991SOL    HW254033   3.935   5.809   0.733
13992SOL     OW54034   5.075   7.176   1.513
13992SOL    HW154035   5.017   7.246   1.555
13992SOL    HW254036   5.134   7.218   1.444
13993SOL     OW54037   3.953   6.168   0.257
13993SOL    HW154038   4.011   6.192   0.180
13993SOL    HW254039   3.990   6.209   0.341
13994SOL     OW54040   5.465   5.772   1.356
13994SOL    HW154041   5.395   5.803   1.420
13994SOL    HW254042   5.435   5.789   1.262
13995SOL     OW54043   4.037   7.351   0.686
13995SOL    HW154044   3.990   7.262   0.684
13995SOL    HW254045   4.036   7.390   0.594
13996SOL     OW54046   4.048   6.804   1.235
13996SOL    HW154047   4.043   6.831   1.331
13996SOL    HW254048   3.968   6.839   1.186
13997SOL     OW54049   4.774   7.142   1.812
13997SOL    HW154050   4.787   7.046   1.789
13997SOL    HW254051   4.818   7.199   1.743
13998SOL     OW54052   4.464   6.838   0.523
13998SOL    HW154053   4.453   6.777   0.445
13998SOL    HW254054   4.462   6.785   0.608
13999SOL     OW54055   4.048   6.374   0.765
13999SOL    HW154056   4.050   6.461   0.814
13999SOL    HW254057   4.074   6.300   0.827
14000SOL     OW54058   3.965   5.893   0.237
14000SOL    HW154059   4.020   5.860   0.160
14000SOL    HW254060   3.965   5.993   0.237
14001SOL     OW54061   3.838   6.101   0.815
14001SOL    HW154062   3.784   6.169   0.865
14001SOL    HW254063   3.933   6.104   0.847
14002SOL     OW54064   4.161   6.659   0.269
14002SOL    HW154065   4.259   6.677   0.284
14002SOL    HW254066   4.123   6.731   0.210
14003SOL     OW54067   4.833   6.158   0.032
14003SOL    HW154068   4.851   6.250   9.998
14003SOL    HW254069   4.902   6.095   9.996
14004SOL     OW54070   4.569   6.213   0.169
14004SOL    HW154071   4.660   6.202   0.129
14004SOL    HW254072   4.533   6.123   0.194
14005SOL     OW54073   5.003   5.690   0.466
14005SOL    HW154074   4.914   5.678   0.512
14005SOL    HW254075   5.026   5.787   0.464
14006SOL     OW54076   5.104   6.055   1.504
14006SOL    HW154077   5.051   6.088   1.582
14006SOL    HW254078   5.048   5.992   1.449
14007SOL     OW54079   3.780   5.720   0.117
14007SOL    HW154080   3.799   5.625   0.143
14007SOL    HW254081   3.850   5.780   0.156
14008SOL     OW54082   4.106   6.543   1.156
14008SOL    HW154083   4.069   6.477   1.222
14008SOL    HW254084   4.091   6.636   1.190
14009SOL     OW54085   5.469   6.575   0.239
14009SOL    HW154086   5.397   6.618   0.185
14009SOL    HW254087   5.525   6.517   0.180
14010SOL     OW54088   4.328   6.146   1.201
14010SOL    HW154089   4.367   6.206   1.271
14010SOL    HW254090   4.230   6.135   1.217
14011SOL     OW54091   4.517   6.546   1.509
14011SOL    HW154092   4.569   6.597   1.440
14011SOL    HW254093   4.500   6.606   1.588
14012SOL     OW54094   4.862   6.599   1.689
14012SOL    HW154095   4.777   6.549   1.705
14012SOL    HW254096   4.940   6.540   1.708
14013SOL     OW54097   4.763   5.787   0.590
14013SOL    HW154098   4.729   5.879   0.608
14013SOL    HW254099   4.750   5.730   0.672
14014SOL     OW54100   4.888   7.350   1.634
14014SOL    HW154101   4.812   7.374   1.573
14014SOL    HW254102   4.915   7.430   1.688
14015SOL     OW54103   4.376   5.622   0.885
14015SOL    HW154104   4.354   5.552   0.817
14015SOL    HW254105   4.453   5.591   0.940
14016SOL     OW54106   3.983   7.334   1.278
14016SOL    HW154107   3.978   7.269   1.203
14016SOL    HW254108   3.895   7.339   1.325
14017SOL     OW54109   4.678   6.763   0.883
14017SOL    HW154110   4.712   6.848   0.842
14017SOL    HW254111   4.755   6.713   0.923
14018SOL     OW54112   4.334   6.527   0.959
14018SOL    HW154113   4.367   6.439   0.925
14018SOL    HW254114   4.263   6.512   1.027
14019SOL     OW54115   4.103   5.524   0.484
14019SOL    HW154116   4.093   5.624   0.485
14019SOL    HW254117   4.034   5.483   0.544
14020SOL     OW54118   4.399   6.163   1.663
14020SOL    HW154119   4.337   6.203   1.596
14020SOL    HW254120   4.492   6.162   1.626
14021SOL     OW54121   5.436   5.790   0.849
14021SOL    HW154122   5.416   5.801   0.947
14021SOL    HW254123   5.534   5.806   0.833
14022SOL     OW54124   4.481   6.729   1.077
14022SOL    HW154125   4.429   6.653   1.039
14022SOL    HW254126   4.552   6.757   1.013
14023SOL     OW54127   4.921   6.124   0.293
14023SOL    HW154128   4.956   6.214   0.321
14023SOL    HW254129   4.891   6.128   0.198
14024SOL     OW54130   5.255   7.000   1.623
14024SOL    HW154131   5.203   6.933   1.676
14024SOL    HW254132   5.192   7.068   1.586
14025SOL     OW54133   3.943   6.395   1.359
14025SOL    HW154134   3.949   6.305   1.404
14025SOL    HW254135   3.924   6.465   1.428
14026SOL     OW54136   4.226   7.118   1.070
14026SOL    HW154137   4.266   7.108   0.979
14026SOL    HW254138   4.261   7.046   1.130
14027SOL     OW54139   4.463   6.662   0.746
14027SOL    HW154140   4.543   6.701   0.791
14027SOL    HW254141   4.410   6.609   0.813
14028SOL     OW54142   4.651   7.046   0.531
14028SOL    HW154143   4.698   7.054   0.443
14028SOL    HW254144   4.582   6.974   0.525
14029SOL     OW54145   3.795   6.363   0.899
14029SOL    HW154146   3.882   6.374   0.852
14029SOL    HW254147   3.724   6.418   0.855
14030SOL     OW54148   3.729   6.454   1.774
14030SOL    HW154149   3.630   6.457   1.765
14030SOL    HW254150   3.754   6.400   1.854
14031SOL     OW54151   4.662   7.399   1.466
14031SOL    HW154152   4.624   7.321   1.516
14031SOL    HW254153   4.589   7.462   1.441
14032SOL     OW54154   4.919   6.682   1.004
14032SOL    HW154155   4.937   6.780   1.015
14032SOL    HW254156   4.956   6.633   1.083
14033SOL     OW54157   4.238   5.920   1.808
14033SOL    HW154158   4.307   5.908   1.736
14033SOL    HW254159   4.233   6.017   1.833
14034SOL     OW54160   4.208   6.405   0.363
14034SOL    HW154161   4.180   6.497   0.336
14034SOL    HW254162   4.134   6.362   0.414
14035SOL     OW54163   5.248   6.473   0.992
14035SOL    HW154164   5.291   6.549   0.943
14035SOL    HW254165   5.213   6.505   1.080
14036SOL     OW54166   5.023   5.808   1.386
14036SOL    HW154167   5.089   5.784   1.457
14036SOL    HW254168   4.969   5.727   1.363
14037SOL     OW54169   3.768   5.597   0.460
14037SOL    HW154170   3.711   5.574   0.538
14037SOL    HW254171   3.760   5.695   0.441
14038SOL     OW54172   4.984   5.673   1.737
14038SOL    HW154173   5.036   5.662   1.821
14038SOL    HW254174   4.917   5.747   1.749
14039SOL     OW54175   4.142   7.117   1.606
14039SOL    HW154176   4.079   7.174   1.658
14039SOL    HW254177   4.185   7.171   1.534
14040SOL     OW54178   5.503   6.986   1.521
14040SOL    HW154179   5.559   7.064   1.552
14040SOL    HW254180   5.412   6.992   1.561
14041SOL     OW54181   4.753   6.003   1.097
14041SOL    HW154182   4.833   6.056   1.125
14041SOL    HW254183   4.753   5.915   1.144
14042SOL     OW54184   4.123   7.007   0.704
14042SOL    HW154185   4.115   6.908   0.713
14042SOL    HW254186   4.033   7.046   0.687
14043SOL     OW54187   4.801   7.165   1.113
14043SOL    HW154188   4.722   7.133   1.062
14043SOL    HW254189   4.780   7.253   1.156
14044SOL     OW54190   3.962   7.283   1.745
14044SOL    HW154191   3.963   7.382   1.737
14044SOL    HW254192   3.976   7.257   1.841
14045SOL     OW54193   3.828   6.815   1.654
14045SOL    HW154194   3.830   6.721   1.620
14045SOL    HW254195   3.753   6.865   1.610
14046SOL     OW54196   3.947   7.148   1.080
14046SOL    HW154197   3.903   7.058   1.087
14046SOL    HW254198   4.045   7.136   1.063
14047SOL     OW54199   4.731   5.677   0.840
14047SOL    HW154200   4.821   5.702   0.876
14047SOL    HW254201   4.684   5.617   0.906
14048SOL     OW54202   4.786   6.668   0.398
14048SOL    HW154203   4.875   6.690   0.439
14048SOL    HW254204   4.731   6.615   0.463
14049SOL     OW54205   5.290   6.012   0.763
14049SOL    HW154206   5.317   6.092   0.816
14049SOL    HW254207   5.343   5.932   0.793
14050SOL     OW54208   4.436   6.667   0.308
14050SOL    HW154209   4.505   6.716   0.255
14050SOL    HW254210   4.464   6.571   0.317
14051SOL     OW54211   4.468   5.683   0.217
14051SOL    HW154212   4.547   5.627   0.196
14051SOL    HW254213   4.497   5.777   0.237
14052SOL     OW54214   4.277   6.029   0.788
14052SOL    HW154215   4.333   5.948   0.774
14052SOL    HW254216   4.308   6.103   0.728
14053SOL     OW54217   4.259   6.603   1.439
14053SOL    HW154218   4.350   6.571   1.462
14053SOL    HW254219   4.266   6.687   1.385
14054SOL     OW54220   5.441   6.631   1.317
14054SOL    HW154221   5.443   6.729   1.296
14054SOL    HW254222   5.499   6.582   1.253
14055SOL     OW54223   5.022   6.670   1.473
14055SOL    HW154224   4.958   6.633   1.540
14055SOL    HW254225   5.004   6.767   1.460
14056SOL     OW54226   4.240   7.267   1.391
14056SOL    HW154227   4.296   7.349   1.393
14056SOL    HW254228   4.153   7.286   1.346
14057SOL     OW54229   3.911   6.121   1.766
14057SOL    HW154230   3.882   6.026   1.756
14057SOL    HW254231   3.951   6.134   1.857
14058SOL     OW54232   5.363   7.050   1.036
14058SOL    HW154233   5.396   7.139   1.066
14058SOL    HW254234   5.373   6.984   1.110
14059SOL     OW54235   3.643   6.482   0.694
14059SOL    HW154236   3.669   6.557   0.633
14059SOL    HW254237   3.545   6.490   0.716
14060SOL     OW54238   4.215   6.276   1.494
14060SOL    HW154239   4.128   6.228   1.495
14060SOL    HW254240   4.201   6.371   1.465
14061SOL     OW54241   5.337   6.687   0.837
14061SOL    HW154242   5.319   6.784   0.818
14061SOL    HW254243   5.308   6.632   0.759
14062SOL     OW54244   4.509   6.100   1.005
14062SOL    HW154245   4.594   6.064   1.043
14062SOL    HW254246   4.442   6.112   1.079
14063SOL     OW54247   4.316   6.844   1.263
14063SOL    HW154248   4.220   6.830   1.240
14063SOL    HW254249   4.373   6.803   1.191
14064SOL     OW54250   3.809   6.261   1.155
14064SOL    HW154251   3.849   6.323   1.222
14064SOL    HW254252   3.817   6.301   1.063
14065SOL     OW54253   4.036   6.893   1.489
14065SOL    HW154254   4.078   6.977   1.525
14065SOL    HW254255   3.964   6.863   1.551
14066SOL     OW54256   5.046   6.741   0.458
14066SOL    HW154257   5.138   6.748   0.499
14066SOL    HW254258   5.048   6.777   0.365
14067SOL     OW54259   4.346   5.923   0.489
14067SOL    HW154260   4.255   5.884   0.475
14067SOL    HW254261   4.389   5.881   0.569
14068SOL     OW54262   5.325   5.558   0.739
14068SOL    HW154263   5.297   5.574   0.644
14068SOL    HW254264   5.366   5.641   0.776
14069SOL     OW54265   4.843   6.286   1.393
14069SOL    HW154266   4.941   6.293   1.375
14069SOL    HW254267   4.792   6.341   1.326
14070SOL     OW54268   4.450   6.304   0.838
14070SOL    HW154269   4.465   6.226   0.899
14070SOL    HW254270   4.440   6.271   0.744
14071SOL     OW54271   4.970   6.952   1.040
14071SOL    HW154272   4.905   7.017   1.080
14071SOL    HW254273   5.001   6.987   0.951
14072SOL     OW54274   5.022   5.970   0.738
14072SOL    HW154275   5.008   5.961   0.639
14072SOL    HW254276   5.118   5.990   0.756
14073SOL     OW54277   5.384   6.763   2.415
14073SOL    HW154278   5.345   6.815   2.340
14073SOL    HW254279   5.475   6.729   2.389
14074SOL     OW54280   4.041   5.744   1.836
14074SOL    HW154281   3.962   5.776   1.784
14074SOL    HW254282   4.118   5.806   1.823
14075SOL     OW54283   5.008   5.465   3.200
14075SOL    HW154284   4.960   5.544   3.239
14075SOL    HW254285   5.006   5.470   3.100
14076SOL     OW54286   4.260   7.006   2.233
14076SOL    HW154287   4.215   7.055   2.308
14076SOL    HW254288   4.315   6.932   2.269
14077SOL     OW54289   4.227   5.576   1.975
14077SOL    HW154290   4.319   5.612   1.991
14077SOL    HW254291   4.176   5.639   1.916
14078SOL     OW54292   5.287   6.607   3.404
14078SOL    HW154293   5.225   6.682   3.426
14078SOL    HW254294   5.337   6.628   3.320
14079SOL     OW54295   5.127   6.624   3.056
14079SOL    HW154296   5.142   6.554   3.126
14079SOL    HW254297   5.164   6.711   3.087
14080SOL     OW54298   4.692   6.900   3.348
14080SOL    HW154299   4.620   6.970   3.345
14080SOL    HW254300   4.676   6.834   3.275
14081SOL     OW54301   4.137   6.815   2.494
14081SOL    HW154302   4.115   6.754   2.570
14081SOL    HW254303   4.228   6.793   2.459
14082SOL     OW54304   4.396   6.176   2.404
14082SOL    HW154305   4.429   6.254   2.352
14082SOL    HW254306   4.373   6.101   2.342
14083SOL     OW54307   5.034   5.873   3.653
14083SOL    HW154308   5.125   5.909   3.635
14083SOL    HW254309   5.016   5.876   3.752
14084SOL     OW54310   4.141   6.892   2.001
14084SOL    HW154311   4.191   6.914   1.916
14084SOL    HW254312   4.179   6.947   2.076
14085SOL     OW54313   4.231   5.853   2.855
14085SOL    HW154314   4.291   5.933   2.847
14085SOL    HW254315   4.279   5.772   2.823
14086SOL     OW54316   4.019   6.287   2.345
14086SOL    HW154317   4.054   6.320   2.433
14086SOL    HW254318   3.921   6.267   2.353
14087SOL     OW54319   4.751   5.882   2.253
14087SOL    HW154320   4.805   5.960   2.283
14087SOL    HW254321   4.753   5.811   2.324
14088SOL     OW54322   3.846   6.549   3.435
14088SOL    HW154323   3.945   6.541   3.447
14088SOL    HW254324   3.801   6.541   3.524
14089SOL     OW54325   4.223   6.198   1.869
14089SOL    HW154326   4.197   6.295   1.873
14089SOL    HW254327   4.293   6.186   1.799
14090SOL     OW54328   5.271   7.000   2.728
14090SOL    HW154329   5.318   7.048   2.802
14090SOL    HW254330   5.287   7.049   2.642
14091SOL     OW54331   3.956   6.827   2.291
14091SOL    HW154332   4.022   6.819   2.366
14091SOL    HW254333   3.987   6.773   2.213
14092SOL     OW54334   4.885   5.781   2.035
14092SOL    HW154335   4.955   5.717   2.068
14092SOL    HW254336   4.836   5.820   2.113
14093SOL     OW54337   4.003   6.042   3.105
14093SOL    HW154338   4.009   5.946   3.078
14093SOL    HW254339   3.944   6.092   3.041
14094SOL     OW54340   4.077   5.854   2.281
14094SOL    HW154341   4.027   5.891   2.359
14094SOL    HW254342   4.021   5.862   2.198
14095SOL     OW54343   5.228   7.317   3.263
14095SOL    HW154344   5.174   7.297   3.180
14095SOL    HW254345   5.323   7.331   3.238
14096SOL     OW54346   5.528   7.368   2.952
14096SOL    HW154347   5.545   7.395   3.047
14096SOL    HW254348   5.608   7.319   2.917
14097SOL     OW54349   4.557   6.010   2.551
14097SOL    HW154350   4.654   6.028   2.561
14097SOL    HW254351   4.515   6.082   2.496
14098SOL     OW54352   4.827   6.492   2.020
14098SOL    HW154353   4.889   6.468   2.095
14098SOL    HW254354   4.809   6.410   1.965
14099SOL     OW54355   5.459   6.212   2.208
14099SOL    HW154356   5.407   6.127   2.219
14099SOL    HW254357   5.519   6.225   2.286
14100SOL     OW54358   4.745   7.385   1.955
14100SOL    HW154359   4.752   7.295   1.913
14100SOL    HW254360   4.833   7.412   1.993
14101SOL     OW54361   4.470   5.628   3.563
14101SOL    HW154362   4.471   5.533   3.531
14101SOL    HW254363   4.482   5.630   3.662
14102SOL     OW54364   5.341   6.261   2.771
14102SOL    HW154365   5.302   6.353   2.766
14102SOL    HW254366   5.365   6.240   2.866
14103SOL     OW54367   4.801   6.828   3.602
14103SOL    HW154368   4.871   6.759   3.589
14103SOL    HW254369   4.757   6.848   3.515
14104SOL     OW54370   4.468   6.767   3.602
14104SOL    HW154371   4.399   6.838   3.615
14104SOL    HW254372   4.536   6.773   3.675
14105SOL     OW54373   5.147   5.548   2.717
14105SOL    HW154374   5.102   5.636   2.730
14105SOL    HW254375   5.229   5.561   2.661
14106SOL     OW54376   5.451   5.722   3.620
14106SOL    HW154377   5.489   5.707   3.711
14106SOL    HW254378   5.388   5.799   3.623
14107SOL     OW54379   3.758   6.254   2.423
14107SOL    HW154380   3.765   6.188   2.499
14107SOL    HW254381   3.735   6.344   2.460
14108SOL     OW54382   4.052   5.762   2.654
14108SOL    HW154383   4.104   5.807   2.726
14108SOL    HW254384   4.084   5.668   2.642
14109SOL     OW54385   4.032   5.780   3.043
14109SOL    HW154386   4.015   5.681   3.048
14109SOL    HW254387   4.106   5.797   2.978
14110SOL     OW54388   4.703   6.300   2.668
14110SOL    HW154389   4.670   6.362   2.597
14110SOL    HW254390   4.764   6.233   2.626
14111SOL     OW54391   3.919   7.097   2.253
14111SOL    HW154392   3.917   6.997   2.257
14111SOL    HW254393   3.939   7.126   2.160
14112SOL     OW54394   5.181   6.881   3.141
14112SOL    HW154395   5.152   6.932   3.060
14112SOL    HW254396   5.110   6.885   3.211
14113SOL     OW54397   3.868   7.322   2.404
14113SOL    HW154398   3.776   7.361   2.401
14113SOL    HW254399   3.868   7.234   2.357
14114SOL     OW54400   5.449   6.935   3.135
14114SOL    HW154401   5.477   6.965   3.226
14114SOL    HW254402   5.350   6.917   3.135
14115SOL     OW54403   4.183   6.469   1.880
14115SOL    HW154404   4.159   6.522   1.799
14115SOL    HW254405   4.178   6.527   1.961
14116SOL     OW54406   4.645   6.716   3.153
14116SOL    HW154407   4.672   6.619   3.153
14116SOL    HW254408   4.594   6.735   3.069
14117SOL     OW54409   3.780   6.328   2.019
14117SOL    HW154410   3.861   6.269   2.018
14117SOL    HW254411   3.711   6.288   2.079
14118SOL     OW54412   5.275   6.415   2.232
14118SOL    HW154413   5.338   6.338   2.221
14118SOL    HW254414   5.303   6.489   2.172
14119SOL     OW54415   4.454   6.418   1.916
14119SOL    HW154416   4.467   6.329   1.958
14119SOL    HW254417   4.357   6.435   1.901
14120SOL     OW54418   5.068   5.947   2.285
14120SOL    HW154419   5.019   6.007   2.223
14120SOL    HW254420   5.166   5.964   2.278
14121SOL     OW54421   3.943   6.184   3.325
14121SOL    HW154422   3.965   6.119   3.252
14121SOL    HW254423   3.902   6.135   3.402
14122SOL     OW54424   3.843   5.799   3.269
14122SOL    HW154425   3.914   5.797   3.198
14122SOL    HW254426   3.754   5.778   3.227
14123SOL     OW54427   5.342   5.977   2.301
14123SOL    HW154428   5.426   5.924   2.286
14123SOL    HW254429   5.340   6.011   2.395
14124SOL     OW54430   4.539   5.914   2.088
14124SOL    HW154431   4.458   5.924   2.146
14124SOL    HW254432   4.620   5.904   2.146
14125SOL     OW54433   4.659   6.707   1.938
14125SOL    HW154434   4.721   6.634   1.965
14125SOL    HW254435   4.707   6.774   1.882
14126SOL     OW54436   5.339   7.157   2.514
14126SOL    HW154437   5.304   7.250   2.528
14126SOL    HW254438   5.424   7.161   2.461
14127SOL     OW54439   4.900   6.408   2.455
14127SOL    HW154440   4.945   6.461   2.526
14127SOL    HW254441   4.803   6.431   2.453
14128SOL     OW54442   4.579   7.209   3.512
14128SOL    HW154443   4.537   7.162   3.434
14128SOL    HW254444   4.570   7.153   3.594
14129SOL     OW54445   5.039   6.568   2.632
14129SOL    HW154446   5.095   6.538   2.709
14129SOL    HW254447   5.067   6.660   2.604
14130SOL     OW54448   4.039   6.653   2.704
14130SOL    HW154449   3.943   6.679   2.715
14130SOL    HW254450   4.084   6.652   2.793
14131SOL     OW54451   4.630   6.466   2.458
14131SOL    HW154452   4.586   6.437   2.373
14131SOL    HW254453   4.585   6.548   2.492
14132SOL     OW54454   4.966   6.909   3.307
14132SOL    HW154455   5.001   6.997   3.341
14132SOL    HW254456   4.867   6.905   3.321
14133SOL     OW54457   3.742   5.839   2.278
14133SOL    HW154458   3.795   5.852   2.195
14133SOL    HW254459   3.796   5.870   2.357
14134SOL     OW54460   3.780   7.392   3.263
14134SOL    HW154461   3.731   7.479   3.261
14134SOL    HW254462   3.759   7.344   3.348
14135SOL     OW54463   4.493   6.376   2.235
14135SOL    HW154464   4.395   6.386   2.219
14135SOL    HW254465   4.533   6.316   2.165
14136SOL     OW54466   4.028   6.080   2.757
14136SOL    HW154467   4.087   6.067   2.678
14136SOL    HW254468   4.072   6.044   2.839
14137SOL     OW54469   4.020   7.231   2.013
14137SOL    HW154470   4.116   7.205   2.004
14137SOL    HW254471   4.013   7.312   2.072
14138SOL     OW54472   5.091   7.251   3.040
14138SOL    HW154473   5.060   7.316   2.970
14138SOL    HW254474   5.087   7.158   3.002
14139SOL     OW54475   3.775   6.724   2.791
14139SOL    HW154476   3.688   6.721   2.741
14139SOL    HW254477   3.773   6.658   2.866
14140SOL     OW54478   4.428   5.508   2.270
14140SOL    HW154479   4.452   5.558   2.187
14140SOL    HW254480   4.364   5.563   2.324
14141SOL     OW54481   3.715   6.698   2.339
14141SOL    HW154482   3.794   6.759   2.344
14141SOL    HW254483   3.713   6.653   2.250
14142SOL     OW54484   5.038   5.795   2.763
14142SOL    HW154485   5.057   5.856   2.686
14142SOL    HW254486   5.064   5.840   2.848
14143SOL     OW54487   5.127   5.600   1.980
14143SOL    HW154488   5.222   5.571   1.991
14143SOL    HW254489   5.067   5.521   1.993
14144SOL     OW54490   4.389   5.802   2.511
14144SOL    HW154491   4.374   5.740   2.588
14144SOL    HW254492   4.465   5.863   2.532
14145SOL     OW54493   5.267   5.585   2.283
14145SOL    HW154494   5.300   5.555   2.194
14145SOL    HW254495   5.171   5.613   2.276
14146SOL     OW54496   4.303   6.982   3.647
14146SOL    HW154497   4.250   7.032   3.578
14146SOL    HW254498   4.383   7.037   3.673
14147SOL     OW54499   4.118   6.544   3.461
14147SOL    HW154500   4.143   6.583   3.372
14147SOL    HW254501   4.171   6.589   3.533
14148SOL     OW54502   3.832   6.936   2.959
14148SOL    HW154503   3.818   6.867   2.888
14148SOL    HW254504   3.756   6.934   3.024
14149SOL     OW54505   4.826   6.053   2.605
14149SOL    HW154506   4.923   6.040   2.585
14149SOL    HW254507   4.796   5.986   2.672
14150SOL     OW54508   5.469   6.165   3.573
14150SOL    HW154509   5.460   6.243   3.511
14150SOL    HW254510   5.564   6.133   3.572
14151SOL     OW54511   5.302   5.957   3.651
14151SOL    HW154512   5.357   6.036   3.623
14151SOL    HW254513   5.311   5.944   3.750
14152SOL     OW54514   5.004   6.363   2.211
14152SOL    HW154515   4.963   6.377   2.301
14152SOL    HW254516   5.102   6.383   2.215
14153SOL     OW54517   5.277   6.453   2.502
14153SOL    HW154518   5.272   6.442   2.403
14153SOL    HW254519   5.186   6.475   2.537
14154SOL     OW54520   5.478   6.400   3.421
14154SOL    HW154521   5.405   6.467   3.410
14154SOL    HW254522   5.553   6.421   3.359
14155SOL     OW54523   5.282   5.837   2.008
14155SOL    HW154524   5.304   5.865   2.102
14155SOL    HW254525   5.208   5.770   2.010
14156SOL     OW54526   4.451   7.085   3.294
14156SOL    HW154527   4.382   7.157   3.291
14156SOL    HW254528   4.438   7.022   3.217
14157SOL     OW54529   3.834   5.797   3.541
14157SOL    HW154530   3.843   5.793   3.441
14157SOL    HW254531   3.740   5.775   3.566
14158SOL     OW54532   3.740   7.241   3.491
14158SOL    HW154533   3.825   7.250   3.542
14158SOL    HW254534   3.662   7.249   3.554
14159SOL     OW54535   3.899   5.911   2.486
14159SOL    HW154536   3.853   5.983   2.539
14159SOL    HW254537   3.953   5.853   2.548
14160SOL     OW54538   5.061   7.145   3.400
14160SOL    HW154539   4.984   7.191   3.444
14160SOL    HW254540   5.114   7.212   3.347
14161SOL     OW54541   4.012   6.150   2.045
14161SOL    HW154542   4.095   6.164   1.991
14161SOL    HW254543   4.027   6.184   2.138
14162SOL     OW54544   4.083   7.340   2.579
14162SOL    HW154545   4.001   7.356   2.524
14162SOL    HW254546   4.124   7.252   2.554
14163SOL     OW54547   4.098   6.916   3.043
14163SOL    HW154548   4.093   6.919   3.143
14163SOL    HW254549   4.007   6.929   3.005
14164SOL     OW54550   4.901   7.059   3.715
14164SOL    HW154551   4.868   6.972   3.678
14164SOL    HW254552   4.885   7.131   3.649
14165SOL     OW54553   4.386   6.789   2.363
14165SOL    HW154554   4.422   6.742   2.282
14165SOL    HW254555   4.440   6.763   2.443
14166SOL     OW54556   4.079   6.395   2.599
14166SOL    HW154557   4.073   6.492   2.625
14166SOL    HW254558   4.165   6.357   2.634
14167SOL     OW54559   3.919   5.880   2.057
14167SOL    HW154560   3.965   5.828   1.984
14167SOL    HW254561   3.939   5.977   2.046
14168SOL     OW54562   3.778   6.099   2.648
14168SOL    HW154563   3.706   6.146   2.700
14168SOL    HW254564   3.863   6.101   2.700
14169SOL     OW54565   4.208   6.645   2.092
14169SOL    HW154566   4.306   6.651   2.109
14169SOL    HW254567   4.175   6.732   2.057
14170SOL     OW54568   4.788   6.249   1.874
14170SOL    HW154569   4.739   6.309   1.811
14170SOL    HW254570   4.859   6.198   1.824
14171SOL     OW54571   4.569   6.193   2.040
14171SOL    HW154572   4.649   6.210   1.982
14171SOL    HW254573   4.552   6.094   2.045
14172SOL     OW54574   5.010   5.679   2.285
14172SOL    HW154575   4.928   5.661   2.338
14172SOL    HW254576   5.031   5.777   2.287
14173SOL     OW54577   3.756   5.620   2.009
14173SOL    HW154578   3.833   5.562   2.037
14173SOL    HW254579   3.783   5.716   2.012
14174SOL     OW54580   4.164   6.661   2.952
14174SOL    HW154581   4.172   6.616   3.040
14174SOL    HW254582   4.144   6.758   2.965
14175SOL     OW54583   5.373   6.587   2.048
14175SOL    HW154584   5.472   6.597   2.061
14175SOL    HW254585   5.352   6.587   1.950
14176SOL     OW54586   4.436   6.679   3.345
14176SOL    HW154587   4.515   6.701   3.288
14176SOL    HW254588   4.455   6.706   3.439
14177SOL     OW54589   4.773   5.674   2.434
14177SOL    HW154590   4.772   5.717   2.524
14177SOL    HW254591   4.723   5.588   2.438
14178SOL     OW54592   4.855   7.258   3.534
14178SOL    HW154593   4.756   7.259   3.519
14178SOL    HW254594   4.883   7.348   3.569
14179SOL     OW54595   4.351   5.642   2.730
14179SOL    HW154596   4.292   5.570   2.693
14179SOL    HW254597   4.442   5.603   2.750
14180SOL     OW54598   4.004   7.351   3.112
14180SOL    HW154599   3.967   7.296   3.036
14180SOL    HW254600   3.931   7.371   3.177
14181SOL     OW54601   4.749   6.705   2.744
14181SOL    HW154602   4.796   6.632   2.693
14181SOL    HW254603   4.808   6.739   2.817
14182SOL     OW54604   4.359   6.563   2.777
14182SOL    HW154605   4.353   6.468   2.749
14182SOL    HW254606   4.282   6.586   2.837
14183SOL     OW54607   3.755   6.527   2.977
14183SOL    HW154608   3.801   6.489   3.057
14183SOL    HW254609   3.774   6.470   2.897
14184SOL     OW54610   4.049   5.585   2.348
14184SOL    HW154611   4.075   5.679   2.324
14184SOL    HW254612   3.959   5.585   2.390
14185SOL     OW54613   3.763   6.600   2.083
14185SOL    HW154614   3.785   6.507   2.057
14185SOL    HW254615   3.813   6.664   2.025
14186SOL     OW54616   4.524   6.743   2.910
14186SOL    HW154617   4.458   6.679   2.873
14186SOL    HW254618   4.605   6.746   2.850
14187SOL     OW54619   4.924   6.118   2.129
14187SOL    HW154620   4.952   6.208   2.161
14187SOL    HW254621   4.874   6.128   2.043
14188SOL     OW54622   5.258   7.011   3.526
14188SOL    HW154623   5.224   6.928   3.569
14188SOL    HW254624   5.183   7.057   3.479
14189SOL     OW54625   3.870   6.409   3.194
14189SOL    HW154626   3.899   6.325   3.240
14189SOL    HW254627   3.859   6.482   3.262
14190SOL     OW54628   4.486   7.081   1.845
14190SOL    HW154629   4.426   7.124   1.913
14190SOL    HW254630   4.582   7.095   1.871
14191SOL     OW54631   4.231   7.326   2.956
14191SOL    HW154632   4.288   7.258   3.002
14191SOL    HW254633   4.151   7.346   3.013
14192SOL     OW54634   4.517   6.683   2.583
14192SOL    HW154635   4.599   6.713   2.631
14192SOL    HW254636   4.452   6.644   2.648
14193SOL     OW54637   3.837   6.390   2.746
14193SOL    HW154638   3.926   6.374   2.703
14193SOL    HW254639   3.773   6.427   2.678
14194SOL     OW54640   3.722   6.532   3.671
14194SOL    HW154641   3.628   6.497   3.670
14194SOL    HW254642   3.736   6.588   3.752
14195SOL     OW54643   4.906   6.770   2.960
14195SOL    HW154644   4.852   6.794   3.041
14195SOL    HW254645   4.980   6.708   2.986
14196SOL     OW54646   4.224   5.907   3.638
14196SOL    HW154647   4.291   5.898   3.564
14196SOL    HW254648   4.195   6.002   3.646
14197SOL     OW54649   4.228   6.397   2.209
14197SOL    HW154650   4.203   6.486   2.173
14197SOL    HW254651   4.150   6.357   2.257
14198SOL     OW54652   5.236   6.522   2.820
14198SOL    HW154653   5.285   6.596   2.772
14198SOL    HW254654   5.202   6.556   2.907
14199SOL     OW54655   3.793   5.602   2.446
14199SOL    HW154656   3.713   5.592   2.506
14199SOL    HW254657   3.774   5.672   2.377
14200SOL     OW54658   4.872   5.654   3.613
14200SOL    HW154659   4.798   5.674   3.677
14200SOL    HW254660   4.937   5.731   3.612
14201SOL     OW54661   4.147   7.125   3.475
14201SOL    HW154662   4.081   7.177   3.529
14201SOL    HW254663   4.183   7.184   3.402
14202SOL     OW54664   5.495   7.015   3.391
14202SOL    HW154665   5.539   7.103   3.407
14202SOL    HW254666   5.408   7.011   3.440
14203SOL     OW54667   4.679   6.123   2.869
14203SOL    HW154668   4.684   6.192   2.797
14203SOL    HW254669   4.742   6.146   2.943
14204SOL     OW54670   4.114   7.089   2.456
14204SOL    HW154671   4.120   6.994   2.487
14204SOL    HW254672   4.035   7.099   2.395
14205SOL     OW54673   3.978   7.289   3.628
14205SOL    HW154674   4.009   7.384   3.615
14205SOL    HW254675   3.979   7.267   3.725
14206SOL     OW54676   3.845   6.834   3.448
14206SOL    HW154677   3.827   6.736   3.436
14206SOL    HW254678   3.764   6.886   3.420
14207SOL     OW54679   3.891   7.201   2.908
14207SOL    HW154680   3.873   7.103   2.921
14207SOL    HW254681   3.934   7.215   2.819
14208SOL     OW54682   4.770   5.774   2.690
14208SOL    HW154683   4.860   5.764   2.731
14208SOL    HW254684   4.708   5.706   2.729
14209SOL     OW54685   5.355   6.067   2.571
14209SOL    HW154686   5.333   6.148   2.626
14209SOL    HW254687   5.446   6.035   2.595
14210SOL     OW54688   4.480   6.651   2.143
14210SOL    HW154689   4.540   6.682   2.070
14210SOL    HW254690   4.501   6.555   2.165
14211SOL     OW54691   4.489   5.644   2.027
14211SOL    HW154692   4.571   5.589   2.013
14211SOL    HW254693   4.515   5.740   2.037
14212SOL     OW54694   4.205   6.027   2.556
14212SOL    HW154695   4.242   5.935   2.542
14212SOL    HW254696   4.258   6.092   2.502
14213SOL     OW54697   4.193   6.668   3.235
14213SOL    HW154698   4.288   6.668   3.265
14213SOL    HW254699   4.152   6.756   3.256
14214SOL     OW54700   5.432   6.650   3.172
14214SOL    HW154701   5.450   6.747   3.157
14214SOL    HW254702   5.481   6.596   3.104
14215SOL     OW54703   3.896   6.779   1.926
14215SOL    HW154704   3.871   6.796   1.831
14215SOL    HW254705   3.980   6.829   1.948
14216SOL     OW54706   4.297   7.186   2.018
14216SOL    HW154707   4.303   7.285   2.032
14216SOL    HW254708   4.300   7.140   2.107
14217SOL     OW54709   4.234   7.279   3.267
14217SOL    HW154710   4.280   7.367   3.276
14217SOL    HW254711   4.149   7.290   3.216
14218SOL     OW54712   3.869   6.067   3.571
14218SOL    HW154713   3.864   5.968   3.562
14218SOL    HW254714   3.959   6.093   3.607
14219SOL     OW54715   5.387   7.129   2.933
14219SOL    HW154716   5.425   7.221   2.938
14219SOL    HW254717   5.416   7.076   3.013
14220SOL     OW54718   3.686   6.493   2.529
14220SOL    HW154719   3.713   6.569   2.469
14220SOL    HW254720   3.586   6.490   2.537
14221SOL     OW54721   4.182   6.276   3.419
14221SOL    HW154722   4.104   6.240   3.368
14221SOL    HW254723   4.175   6.375   3.426
14222SOL     OW54724   5.334   6.741   2.681
14222SOL    HW154725   5.308   6.834   2.706
14222SOL    HW254726   5.349   6.735   2.582
14223SOL     OW54727   4.425   6.051   2.796
14223SOL    HW154728   4.453   6.022   2.704
14223SOL    HW254729   4.506   6.074   2.849
14224SOL     OW54730   4.383   6.937   3.070
14224SOL    HW154731   4.284   6.932   3.052
14224SOL    HW254732   4.431   6.876   3.006
14225SOL     OW54733   3.841   6.228   2.978
14225SOL    HW154734   3.860   6.294   3.050
14225SOL    HW254735   3.852   6.272   2.889
14226SOL     OW54736   4.075   6.906   3.318
14226SOL    HW154737   4.115   6.981   3.371
14226SOL    HW254738   3.990   6.876   3.361
14227SOL     OW54739   5.363   7.240   3.638
14227SOL    HW154740   5.328   7.151   3.608
14227SOL    HW254741   5.308   7.313   3.596
14228SOL     OW54742   4.340   5.931   2.277
14228SOL    HW154743   4.243   5.913   2.260
14228SOL    HW254744   4.371   5.877   2.355
14229SOL     OW54745   5.355   5.582   2.540
14229SOL    HW154746   5.311   5.586   2.451
14229SOL    HW254747   5.450   5.614   2.532
14230SOL     OW54748   4.332   6.300   2.675
14230SOL    HW154749   4.348   6.223   2.736
14230SOL    HW254750   4.365   6.279   2.583
14231SOL     OW54751   5.075   6.997   2.921
14231SOL    HW154752   5.003   6.929   2.909
14231SOL    HW254753   5.134   6.998   2.841
14232SOL     OW54754   5.091   5.971   2.560
14232SOL    HW154755   5.074   5.956   2.463
14232SOL    HW254756   5.183   6.008   2.572
14233SOL     OW54757   4.769   7.005   4.445
14233SOL    HW154758   4.865   7.032   4.447
14233SOL    HW254759   4.728   7.031   4.357
14234SOL     OW54760   5.287   6.801   4.239
14234SOL    HW154761   5.294   6.860   4.319
14234SOL    HW254762   5.377   6.763   4.218
14235SOL     OW54763   5.241   6.141   5.199
14235SOL    HW154764   5.146   6.136   5.230
14235SOL    HW254765   5.300   6.170   5.275
14236SOL     OW54766   4.042   5.721   3.697
14236SOL    HW154767   3.964   5.742   3.638
14236SOL    HW254768   4.116   5.786   3.678
14237SOL     OW54769   5.036   7.077   4.502
14237SOL    HW154770   5.050   7.172   4.528
14237SOL    HW254771   5.123   7.037   4.472
14238SOL     OW54772   4.855   5.609   5.036
14238SOL    HW154773   4.783   5.577   5.098
14238SOL    HW254774   4.869   5.543   4.963
14239SOL     OW54775   4.669   6.389   5.456
14239SOL    HW154776   4.649   6.309   5.400
14239SOL    HW254777   4.584   6.424   5.497
14240SOL     OW54778   4.241   7.037   4.106
14240SOL    HW154779   4.198   7.064   4.192
14240SOL    HW254780   4.313   6.970   4.125
14241SOL     OW54781   4.234   5.543   3.812
14241SOL    HW154782   4.329   5.573   3.822
14241SOL    HW254783   4.181   5.613   3.764
14242SOL     OW54784   5.276   6.672   5.309
14242SOL    HW154785   5.194   6.652   5.256
14242SOL    HW254786   5.286   6.771   5.318
14243SOL     OW54787   5.181   6.561   4.954
14243SOL    HW154788   5.126   6.567   5.037
14243SOL    HW254789   5.193   6.653   4.916
14244SOL     OW54790   4.684   6.914   5.144
14244SOL    HW154791   4.600   6.968   5.142
14244SOL    HW254792   4.675   6.836   5.082
14245SOL     OW54793   4.126   6.774   4.377
14245SOL    HW154794   4.070   6.736   4.450
14245SOL    HW254795   4.221   6.746   4.390
14246SOL     OW54796   4.974   6.055   5.527
14246SOL    HW154797   5.074   6.054   5.524
14246SOL    HW254798   4.942   5.973   5.575
14247SOL     OW54799   4.125   6.962   3.854
14247SOL    HW154800   4.191   6.973   3.780
14247SOL    HW254801   4.163   6.999   3.939
14248SOL     OW54802   4.245   5.858   4.687
14248SOL    HW154803   4.313   5.932   4.695
14248SOL    HW254804   4.292   5.772   4.667
14249SOL     OW54805   4.446   7.260   4.307
14249SOL    HW154806   4.512   7.191   4.274
14249SOL    HW254807   4.441   7.334   4.240
14250SOL     OW54808   5.467   7.148   4.095
14250SOL    HW154809   5.558   7.111   4.077
14250SOL    HW254810   5.438   7.205   4.018
14251SOL     OW54811   5.314   5.914   4.790
14251SOL    HW154812   5.343   6.009   4.783
14251SOL    HW254813   5.216   5.911   4.809
14252SOL     OW54814   4.797   5.796   4.120
14252SOL    HW154815   4.773   5.874   4.178
14252SOL    HW254816   4.798   5.713   4.176
14253SOL     OW54817   3.887   6.605   5.255
14253SOL    HW154818   3.979   6.636   5.280
14253SOL    HW254819   3.855   6.540   5.324
14254SOL     OW54820   4.119   6.160   3.654
14254SOL    HW154821   4.151   6.200   3.568
14254SOL    HW254822   4.122   6.230   3.726
14255SOL     OW54823   4.362   7.133   4.531
14255SOL    HW154824   4.405   7.187   4.458
14255SOL    HW254825   4.281   7.087   4.495
14256SOL     OW54826   4.623   6.147   5.333
14256SOL    HW154827   4.646   6.060   5.376
14256SOL    HW254828   4.685   6.164   5.256
14257SOL     OW54829   5.304   6.960   4.473
14257SOL    HW154830   5.299   6.991   4.568
14257SOL    HW254831   5.362   7.022   4.420
14258SOL     OW54832   3.975   6.806   4.148
14258SOL    HW154833   4.018   6.795   4.238
14258SOL    HW254834   4.033   6.766   4.078
14259SOL     OW54835   4.988   5.823   3.924
14259SOL    HW154836   5.038   5.738   3.909
14259SOL    HW254837   4.911   5.806   3.986
14260SOL     OW54838   4.081   6.061   4.981
14260SOL    HW154839   4.083   5.964   4.957
14260SOL    HW254840   4.038   6.112   4.906
14261SOL     OW54841   5.125   6.282   4.980
14261SOL    HW154842   5.156   6.376   4.969
14261SOL    HW254843   5.179   6.237   5.051
14262SOL     OW54844   5.233   7.267   5.016
14262SOL    HW154845   5.159   7.278   4.950
14262SOL    HW254846   5.320   7.261   4.968
14263SOL     OW54847   5.490   7.242   4.910
14263SOL    HW154848   5.529   7.286   4.991
14263SOL    HW254849   5.563   7.225   4.844
14264SOL     OW54850   4.702   5.973   4.300
14264SOL    HW154851   4.743   6.031   4.371
14264SOL    HW254852   4.623   5.926   4.338
14265SOL     OW54853   4.936   6.549   3.776
14265SOL    HW154854   4.943   6.499   3.863
14265SOL    HW254855   4.954   6.487   3.700
14266SOL     OW54856   4.668   5.910   5.471
14266SOL    HW154857   4.735   5.884   5.541
14266SOL    HW254858   4.577   5.878   5.497
14267SOL     OW54859   5.436   6.223   4.048
14267SOL    HW154860   5.384   6.137   4.050
14267SOL    HW254861   5.504   6.222   4.121
14268SOL     OW54862   4.683   7.309   3.859
14268SOL    HW154863   4.649   7.231   3.806
14268SOL    HW254864   4.742   7.275   3.932
14269SOL     OW54865   4.437   5.583   5.419
14269SOL    HW154866   4.465   5.488   5.403
14269SOL    HW254867   4.461   5.609   5.512
14270SOL     OW54868   5.426   6.215   4.634
14270SOL    HW154869   5.370   6.289   4.671
14270SOL    HW254870   5.517   6.250   4.610
14271SOL     OW54871   4.775   6.852   5.415
14271SOL    HW154872   4.816   6.761   5.410
14271SOL    HW254873   4.731   6.874   5.328
14272SOL     OW54874   4.469   6.672   5.429
14272SOL    HW154875   4.409   6.748   5.453
14272SOL    HW254876   4.456   6.598   5.496
14273SOL     OW54877   5.100   5.509   4.555
14273SOL    HW154878   5.055   5.596   4.575
14273SOL    HW254879   5.183   5.526   4.502
14274SOL     OW54880   5.396   5.760   5.459
14274SOL    HW154881   5.364   5.776   5.553
14274SOL    HW254882   5.365   5.671   5.428
14275SOL     OW54883   4.064   5.758   4.492
14275SOL    HW154884   4.127   5.797   4.560
14275SOL    HW254885   4.055   5.660   4.508
14276SOL     OW54886   4.086   5.791   4.918
14276SOL    HW154887   4.081   5.692   4.932
14276SOL    HW254888   4.139   5.810   4.835
14277SOL     OW54889   4.807   6.328   4.626
14277SOL    HW154890   4.740   6.384   4.576
14277SOL    HW254891   4.813   6.238   4.583
14278SOL     OW54892   3.908   7.078   4.094
14278SOL    HW154893   3.934   6.982   4.106
14278SOL    HW254894   3.955   7.115   4.013
14279SOL     OW54895   5.156   6.841   4.914
14279SOL    HW154896   5.112   6.871   4.829
14279SOL    HW254897   5.095   6.857   4.991
14280SOL     OW54898   3.912   7.183   4.360
14280SOL    HW154899   3.817   7.199   4.387
14280SOL    HW254900   3.916   7.166   4.262
14281SOL     OW54901   5.418   6.933   4.916
14281SOL    HW154902   5.426   7.002   4.988
14281SOL    HW254903   5.329   6.888   4.923
14282SOL     OW54904   4.655   6.700   4.977
14282SOL    HW154905   4.706   6.618   4.950
14282SOL    HW254906   4.587   6.721   4.908
14283SOL     OW54907   5.259   6.434   4.097
14283SOL    HW154908   5.319   6.355   4.084
14283SOL    HW254909   5.282   6.505   4.030
14284SOL     OW54910   4.571   7.367   4.707
14284SOL    HW154911   4.610   7.279   4.680
14284SOL    HW254912   4.490   7.351   4.765
14285SOL     OW54913   5.090   5.916   4.167
14285SOL    HW154914   5.049   5.914   4.076
14285SOL    HW254915   5.186   5.944   4.161
14286SOL     OW54916   3.990   6.232   5.170
14286SOL    HW154917   4.020   6.156   5.111
14286SOL    HW254918   3.954   6.195   5.256
14287SOL     OW54919   3.887   5.788   5.143
14287SOL    HW154920   3.954   5.811   5.072
14287SOL    HW254921   3.795   5.786   5.103
14288SOL     OW54922   4.749   6.463   4.868
14288SOL    HW154923   4.772   6.411   4.785
14288SOL    HW254924   4.676   6.416   4.917
14289SOL     OW54925   5.360   5.971   4.171
14289SOL    HW154926   5.456   5.951   4.150
14289SOL    HW254927   5.352   5.995   4.268
14290SOL     OW54928   4.618   7.103   4.645
14290SOL    HW154929   4.676   7.071   4.571
14290SOL    HW254930   4.522   7.100   4.617
14291SOL     OW54931   4.582   5.823   3.961
14291SOL    HW154932   4.571   5.918   3.933
14291SOL    HW254933   4.667   5.813   4.013
14292SOL     OW54934   4.645   6.827   3.830
14292SOL    HW154935   4.692   6.818   3.918
14292SOL    HW254936   4.712   6.821   3.756
14293SOL     OW54937   5.447   7.162   4.363
14293SOL    HW154938   5.404   7.247   4.393
14293SOL    HW254939   5.448   7.159   4.263
14294SOL     OW54940   4.865   6.467   4.257
14294SOL    HW154941   4.923   6.481   4.337
14294SOL    HW254942   4.788   6.532   4.260
14295SOL     OW54943   4.531   7.180   5.330
14295SOL    HW154944   4.488   7.129   5.257
14295SOL    HW254945   4.529   7.126   5.415
14296SOL     OW54946   4.997   6.502   4.500
14296SOL    HW154947   4.962   6.419   4.544
14296SOL    HW254948   4.968   6.582   4.553
14297SOL     OW54949   3.983   6.683   4.584
14297SOL    HW154950   3.885   6.696   4.600
14297SOL    HW254951   4.026   6.645   4.666
14298SOL     OW54952   4.658   6.645   4.293
14298SOL    HW154953   4.565   6.609   4.290
14298SOL    HW254954   4.670   6.696   4.379
14299SOL     OW54955   4.963   6.897   5.108
14299SOL    HW154956   5.007   6.981   5.141
14299SOL    HW254957   4.864   6.906   5.119
14300SOL     OW54958   3.757   5.825   4.164
14300SOL    HW154959   3.806   5.824   4.077
14300SOL    HW254960   3.812   5.871   4.234
14301SOL     OW54961   5.384   7.330   3.897
14301SOL    HW154962   5.466   7.387   3.895
14301SOL    HW254963   5.375   7.282   3.809
14302SOL     OW54964   4.566   6.339   5.038
14302SOL    HW154965   4.541   6.414   5.100
14302SOL    HW254966   4.640   6.286   5.079
14303SOL     OW54967   3.784   7.395   5.064
14303SOL    HW154968   3.735   7.482   5.065
14303SOL    HW254969   3.778   7.352   5.155
14304SOL     OW54970   4.094   6.108   4.591
14304SOL    HW154971   4.131   6.020   4.622
14304SOL    HW254972   4.050   6.154   4.668
14305SOL     OW54973   4.004   7.303   3.908
14305SOL    HW154974   4.093   7.336   3.878
14305SOL    HW254975   3.988   7.329   4.003
14306SOL     OW54976   5.013   7.279   4.846
14306SOL    HW154977   5.043   7.297   4.753
14306SOL    HW254978   4.940   7.211   4.846
14307SOL     OW54979   3.723   6.720   4.666
14307SOL    HW154980   3.640   6.748   4.617
14307SOL    HW254981   3.703   6.641   4.724
14308SOL     OW54982   4.486   5.659   4.178
14308SOL    HW154983   4.502   5.715   4.096
14308SOL    HW254984   4.495   5.716   4.259
14309SOL     OW54985   3.689   6.806   4.157
14309SOL    HW154986   3.787   6.814   4.178
14309SOL    HW254987   3.678   6.785   4.059
14310SOL     OW54988   5.261   5.862   5.232
14310SOL    HW154989   5.253   5.960   5.210
14310SOL    HW254990   5.305   5.852   5.321
14311SOL     OW54991   5.014   5.770   4.617
14311SOL    HW154992   5.039   5.836   4.546
14311SOL    HW254993   5.028   5.812   4.707
14312SOL     OW54994   5.155   5.610   3.887
14312SOL    HW154995   5.248   5.581   3.866
14312SOL    HW254996   5.095   5.530   3.896
14313SOL     OW54997   5.244   5.584   5.282
14313SOL    HW154998   5.229   5.531   5.199
14313SOL    HW254999   5.236   5.682   5.261
14314SOL     OW55000   4.527   5.789   4.421
14314SOL    HW155001   4.452   5.754   4.477
14314SOL    HW255002   4.614   5.770   4.466
14315SOL     OW55003   4.932   6.168   4.828
14315SOL    HW155004   4.902   6.233   4.758
14315SOL    HW255005   5.003   6.211   4.885
14316SOL     OW55006   5.306   5.575   4.146
14316SOL    HW155007   5.321   5.538   4.054
14316SOL    HW255008   5.209   5.596   4.158
14317SOL     OW55009   4.265   6.929   5.456
14317SOL    HW155010   4.222   6.999   5.400
14317SOL    HW255011   4.355   6.961   5.487
14318SOL     OW55012   4.138   6.684   5.363
14318SOL    HW155013   4.190   6.658   5.281
14318SOL    HW255014   4.168   6.775   5.393
14319SOL     OW55015   3.816   6.936   4.808
14319SOL    HW155016   3.794   6.864   4.741
14319SOL    HW255017   3.744   6.939   4.878
14320SOL     OW55018   4.829   6.079   4.525
14320SOL    HW155019   4.916   6.039   4.497
14320SOL    HW255020   4.790   6.025   4.600
14321SOL     OW55021   5.431   6.207   5.404
14321SOL    HW155022   5.439   6.302   5.371
14321SOL    HW255023   5.521   6.175   5.432
14322SOL     OW55024   5.046   5.919   4.848
14322SOL    HW155025   5.007   6.011   4.837
14322SOL    HW255026   5.028   5.886   4.941
14323SOL     OW55027   5.242   6.036   5.518
14323SOL    HW155028   5.318   6.093   5.489
14323SOL    HW255029   5.274   5.968   5.584
14324SOL     OW55030   4.991   6.431   4.017
14324SOL    HW155031   4.933   6.437   4.098
14324SOL    HW255032   5.087   6.428   4.045
14325SOL     OW55033   5.244   6.495   4.369
14325SOL    HW155034   5.236   6.481   4.270
14325SOL    HW255035   5.153   6.492   4.411
14326SOL     OW55036   5.466   6.463   5.301
14326SOL    HW155037   5.401   6.539   5.304
14326SOL    HW255038   5.508   6.458   5.210
14327SOL     OW55039   5.310   5.864   3.909
14327SOL    HW155040   5.329   5.891   4.004
14327SOL    HW255041   5.245   5.788   3.909
14328SOL     OW55042   4.426   7.051   5.112
14328SOL    HW155043   4.367   7.128   5.091
14328SOL    HW255044   4.391   6.969   5.067
14329SOL     OW55045   3.853   5.841   5.410
14329SOL    HW155046   3.863   5.829   5.312
14329SOL    HW255047   3.759   5.819   5.437
14330SOL     OW55048   3.773   7.265   5.304
14330SOL    HW155049   3.853   7.275   5.363
14330SOL    HW255050   3.690   7.281   5.359
14331SOL     OW55051   3.926   5.941   4.348
14331SOL    HW155052   3.957   6.030   4.380
14331SOL    HW255053   3.973   5.869   4.400
14332SOL     OW55054   5.088   7.121   5.197
14332SOL    HW155055   5.020   7.183   5.235
14332SOL    HW255056   5.145   7.170   5.131
14333SOL     OW55057   5.383   5.745   5.012
14333SOL    HW155058   5.341   5.792   5.089
14333SOL    HW255059   5.366   5.798   4.928
14334SOL     OW55060   4.159   7.358   4.410
14334SOL    HW155061   4.071   7.316   4.387
14334SOL    HW255062   4.231   7.320   4.352
14335SOL     OW55063   4.053   6.851   4.928
14335SOL    HW155064   4.045   6.879   5.024
14335SOL    HW255065   3.974   6.886   4.877
14336SOL     OW55066   4.858   7.110   5.501
14336SOL    HW155067   4.828   7.018   5.476
14336SOL    HW255068   4.868   7.165   5.419
14337SOL     OW55069   4.429   6.850   4.181
14337SOL    HW155070   4.435   6.784   4.106
14337SOL    HW255071   4.409   6.801   4.266
14338SOL     OW55072   3.878   5.839   3.905
14338SOL    HW155073   3.953   5.800   3.851
14338SOL    HW255074   3.852   5.928   3.867
14339SOL     OW55075   4.155   6.712   3.962
14339SOL    HW155076   4.253   6.691   3.963
14339SOL    HW255077   4.139   6.795   3.909
14340SOL     OW55078   5.056   5.644   4.214
14340SOL    HW155079   4.968   5.617   4.253
14340SOL    HW255080   5.058   5.743   4.202
14341SOL     OW55081   4.978   6.070   5.252
14341SOL    HW155082   4.968   6.057   5.350
14341SOL    HW255083   4.976   5.981   5.206
14342SOL     OW55084   3.779   5.581   3.906
14342SOL    HW155085   3.863   5.529   3.921
14342SOL    HW255086   3.801   5.679   3.905
14343SOL     OW55087   4.099   6.600   4.821
14343SOL    HW155088   4.062   6.533   4.885
14343SOL    HW255089   4.089   6.692   4.860
14344SOL     OW55090   5.345   6.585   3.887
14344SOL    HW155091   5.442   6.600   3.905
14344SOL    HW255092   5.333   6.551   3.794
14345SOL     OW55093   4.363   6.184   4.930
14345SOL    HW155094   4.427   6.248   4.974
14345SOL    HW255095   4.279   6.179   4.983
14346SOL     OW55096   4.538   6.563   5.191
14346SOL    HW155097   4.590   6.625   5.133
14346SOL    HW255098   4.527   6.604   5.282
14347SOL     OW55099   4.856   6.578   5.377
14347SOL    HW155100   4.776   6.522   5.395
14347SOL    HW255101   4.938   6.530   5.409
14348SOL     OW55102   4.804   5.597   4.313
14348SOL    HW155103   4.793   5.644   4.401
14348SOL    HW255104   4.731   5.530   4.302
14349SOL     OW55105   4.893   7.286   5.292
14349SOL    HW155106   4.815   7.307   5.234
14349SOL    HW255107   4.933   7.371   5.326
14350SOL     OW55108   4.384   5.632   4.622
14350SOL    HW155109   4.363   5.545   4.578
14350SOL    HW255110   4.464   5.621   4.681
14351SOL     OW55111   4.020   7.350   4.930
14351SOL    HW155112   3.991   7.296   4.851
14351SOL    HW255113   3.942   7.370   4.989
14352SOL     OW55114   4.657   6.776   4.540
14352SOL    HW155115   4.692   6.864   4.506
14352SOL    HW255116   4.729   6.730   4.591
14353SOL     OW55117   4.316   6.544   4.647
14353SOL    HW155118   4.324   6.447   4.623
14353SOL    HW255119   4.237   6.558   4.706
14354SOL     OW55120   4.005   5.597   4.183
14354SOL    HW155121   4.059   5.667   4.231
14354SOL    HW255122   3.914   5.591   4.225
14355SOL     OW55123   4.350   6.181   5.389
14355SOL    HW155124   4.313   6.241   5.319
14355SOL    HW255125   4.448   6.168   5.373
14356SOL     OW55126   3.754   6.709   3.890
14356SOL    HW155127   3.826   6.672   3.949
14356SOL    HW255128   3.793   6.778   3.830
14357SOL     OW55129   5.437   5.789   4.580
14357SOL    HW155130   5.388   5.821   4.661
14357SOL    HW255131   5.503   5.719   4.607
14358SOL     OW55132   4.482   6.733   4.764
14358SOL    HW155133   4.425   6.659   4.729
14358SOL    HW255134   4.541   6.768   4.691
14359SOL     OW55135   5.224   6.948   5.360
14359SOL    HW155136   5.160   6.903   5.422
14359SOL    HW255137   5.173   7.007   5.298
14360SOL     OW55138   3.957   6.445   5.008
14360SOL    HW155139   3.967   6.363   5.065
14360SOL    HW255140   3.927   6.521   5.065
14361SOL     OW55141   4.547   7.080   3.752
14361SOL    HW155142   4.483   7.118   3.818
14361SOL    HW255143   4.587   6.996   3.788
14362SOL     OW55144   4.331   7.252   4.782
14362SOL    HW155145   4.331   7.204   4.695
14362SOL    HW255146   4.242   7.239   4.827
14363SOL     OW55147   4.397   6.710   4.436
14363SOL    HW155148   4.480   6.751   4.473
14363SOL    HW255149   4.361   6.644   4.502
14364SOL     OW55150   4.619   7.056   4.219
14364SOL    HW155151   4.685   7.069   4.145
14364SOL    HW255152   4.558   6.980   4.196
14365SOL     OW55153   3.798   6.446   5.460
14365SOL    HW155154   3.717   6.425   5.407
14365SOL    HW255155   3.804   6.385   5.539
14366SOL     OW55156   4.662   7.339   5.144
14366SOL    HW155157   4.622   7.277   5.211
14366SOL    HW255158   4.593   7.402   5.110
14367SOL     OW55159   4.868   6.674   4.683
14367SOL    HW155160   4.911   6.762   4.704
14367SOL    HW255161   4.853   6.623   4.768
14368SOL     OW55162   4.259   5.929   5.470
14368SOL    HW155163   4.310   5.879   5.400
14368SOL    HW255164   4.279   6.026   5.463
14369SOL     OW55165   5.331   6.464   4.728
14369SOL    HW155166   5.330   6.540   4.663
14369SOL    HW255167   5.278   6.489   4.809
14370SOL     OW55168   4.997   5.833   5.104
14370SOL    HW155169   5.077   5.810   5.159
14370SOL    HW255170   4.944   5.751   5.085
14371SOL     OW55171   3.741   5.566   4.278
14371SOL    HW155172   3.695   5.502   4.216
14371SOL    HW255173   3.727   5.659   4.245
14372SOL     OW55174   4.901   5.739   5.390
14372SOL    HW155175   4.906   5.764   5.487
14372SOL    HW255176   4.824   5.787   5.347
14373SOL     OW55177   4.155   7.142   5.316
14373SOL    HW155178   4.097   7.200   5.374
14373SOL    HW255179   4.192   7.196   5.241
14374SOL     OW55180   4.721   5.991   4.771
14374SOL    HW155181   4.787   6.057   4.809
14374SOL    HW255182   4.726   5.906   4.822
14375SOL     OW55183   4.147   7.044   4.378
14375SOL    HW155184   4.134   6.945   4.379
14375SOL    HW255185   4.057   7.089   4.382
14376SOL     OW55186   4.797   7.102   4.852
14376SOL    HW155187   4.752   7.101   4.942
14376SOL    HW255188   4.728   7.104   4.780
14377SOL     OW55189   3.989   7.311   5.470
14377SOL    HW155190   4.029   7.402   5.459
14377SOL    HW255191   3.967   7.296   5.566
14378SOL     OW55192   3.832   6.858   5.360
14378SOL    HW155193   3.829   6.763   5.329
14378SOL    HW255194   3.760   6.911   5.315
14379SOL     OW55195   3.901   7.187   4.731
14379SOL    HW155196   3.879   7.093   4.758
14379SOL    HW255197   3.920   7.190   4.632
14380SOL     OW55198   4.755   5.720   4.554
14380SOL    HW155199   4.850   5.741   4.579
14380SOL    HW255200   4.711   5.672   4.630
14381SOL     OW55201   4.760   6.792   4.077
14381SOL    HW155202   4.857   6.806   4.096
14381SOL    HW255203   4.719   6.737   4.150
14382SOL     OW55204   5.340   6.017   4.450
14382SOL    HW155205   5.364   6.094   4.509
14382SOL    HW255206   5.378   5.933   4.489
14383SOL     OW55207   4.441   6.684   3.959
14383SOL    HW155208   4.507   6.741   3.909
14383SOL    HW255209   4.465   6.588   3.946
14384SOL     OW55210   4.499   5.606   3.831
14384SOL    HW155211   4.562   5.533   3.858
14384SOL    HW255212   4.524   5.691   3.877
14385SOL     OW55213   4.277   6.615   5.138
14385SOL    HW155214   4.371   6.587   5.159
14385SOL    HW255215   4.280   6.694   5.076
14386SOL     OW55216   3.884   6.879   3.730
14386SOL    HW155217   3.885   6.875   3.630
14386SOL    HW255218   3.970   6.918   3.762
14387SOL     OW55219   4.355   7.186   3.904
14387SOL    HW155220   4.306   7.270   3.880
14387SOL    HW255221   4.317   7.147   3.988
14388SOL     OW55222   5.035   6.644   5.175
14388SOL    HW155223   4.967   6.608   5.239
14388SOL    HW255224   5.009   6.736   5.147
14389SOL     OW55225   4.244   7.279   5.091
14389SOL    HW155226   4.309   7.355   5.086
14389SOL    HW255227   4.163   7.301   5.037
14390SOL     OW55228   3.925   6.116   5.406
14390SOL    HW155229   3.907   6.019   5.423
14390SOL    HW255230   3.997   6.148   5.467
14391SOL     OW55231   5.311   7.082   4.712
14391SOL    HW155232   5.337   7.178   4.724
14391SOL    HW255233   5.354   7.027   4.784
14392SOL     OW55234   3.562   6.591   4.287
14392SOL    HW155235   3.609   6.673   4.254
14392SOL    HW255236   3.479   6.617   4.335
14393SOL     OW55237   4.238   6.343   5.203
14393SOL    HW155238   4.144   6.310   5.195
14393SOL    HW255239   4.242   6.439   5.174
14394SOL     OW55240   5.346   6.684   4.543
14394SOL    HW155241   5.326   6.779   4.521
14394SOL    HW255242   5.309   6.625   4.471
14395SOL     OW55243   4.447   6.047   4.716
14395SOL    HW155244   4.544   6.028   4.724
14395SOL    HW255245   4.416   6.098   4.797
14396SOL     OW55246   4.325   6.836   4.969
14396SOL    HW155247   4.230   6.851   4.942
14396SOL    HW255248   4.378   6.806   4.889
14397SOL     OW55249   3.956   6.235   4.803
14397SOL    HW155250   3.966   6.314   4.863
14397SOL    HW255251   3.868   6.239   4.756
14398SOL     OW55252   4.032   6.934   5.185
14398SOL    HW155253   4.081   7.012   5.223
14398SOL    HW255254   3.962   6.904   5.250
14399SOL     OW55255   5.359   7.186   5.433
14399SOL    HW155256   5.322   7.096   5.412
14399SOL    HW255257   5.319   7.254   5.372
14400SOL     OW55258   5.032   6.813   4.127
14400SOL    HW155259   5.120   6.804   4.175
14400SOL    HW255260   5.044   6.788   4.031
14401SOL     OW55261   5.328   5.573   4.420
14401SOL    HW155262   5.317   5.585   4.321
14401SOL    HW255263   5.367   5.657   4.459
14402SOL     OW55264   4.802   6.234   5.131
14402SOL    HW155265   4.871   6.176   5.174
14402SOL    HW255266   4.847   6.298   5.069
14403SOL     OW55267   4.324   6.274   4.585
14403SOL    HW155268   4.386   6.204   4.621
14403SOL    HW255269   4.236   6.232   4.563
14404SOL     OW55270   4.970   6.926   4.725
14404SOL    HW155271   4.910   6.984   4.780
14404SOL    HW255272   4.997   6.975   4.642
14405SOL     OW55273   5.067   5.968   4.435
14405SOL    HW155274   5.051   5.951   4.338
14405SOL    HW255275   5.161   5.998   4.450
14406SOL     OW55276   4.765   7.034   6.246
14406SOL    HW155277   4.861   7.062   6.244
14406SOL    HW255278   4.718   7.067   6.164
14407SOL     OW55279   5.297   6.829   6.147
14407SOL    HW155280   5.294   6.927   6.170
14407SOL    HW255281   5.392   6.800   6.136
14408SOL     OW55282   5.387   6.056   6.969
14408SOL    HW155283   5.290   6.081   6.972
14408SOL    HW255284   5.432   6.090   7.052
14409SOL     OW55285   4.073   5.744   5.532
14409SOL    HW155286   3.990   5.772   5.484
14409SOL    HW255287   4.146   5.809   5.512
14410SOL     OW55288   5.024   7.116   6.271
14410SOL    HW155289   5.027   7.201   6.323
14410SOL    HW255290   5.113   7.099   6.229
14411SOL     OW55291   4.863   5.564   6.904
14411SOL    HW155292   4.796   5.558   6.979
14411SOL    HW255293   4.943   5.509   6.927
14412SOL     OW55294   4.703   6.402   7.338
14412SOL    HW155295   4.675   6.345   7.261
14412SOL    HW255296   4.622   6.433   7.388
14413SOL     OW55297   4.265   7.018   5.949
14413SOL    HW155298   4.214   7.042   6.031
14413SOL    HW255299   4.342   6.959   5.973
14414SOL     OW55300   4.244   5.588   5.693
14414SOL    HW155301   4.337   5.626   5.688
14414SOL    HW255302   4.183   5.642   5.636
14415SOL     OW55303   5.250   6.549   7.063
14415SOL    HW155304   5.156   6.561   7.030
14415SOL    HW255305   5.311   6.613   7.015
14416SOL     OW55306   4.653   6.928   7.017
14416SOL    HW155307   4.561   6.963   6.999
14416SOL    HW255308   4.718   6.974   6.957
14417SOL     OW55309   4.148   6.729   6.233
14417SOL    HW155310   4.099   6.726   6.320
14417SOL    HW255311   4.245   6.709   6.247
14418SOL     OW55312   4.543   6.177   6.096
14418SOL    HW155313   4.546   6.261   6.041
14418SOL    HW255314   4.447   6.154   6.115
14419SOL     OW55315   5.010   6.022   7.337
14419SOL    HW155316   5.110   6.034   7.335
14419SOL    HW255317   4.987   5.934   7.295
14420SOL     OW55318   4.137   6.921   5.709
14420SOL    HW155319   4.184   6.940   5.622
14420SOL    HW255320   4.181   6.973   5.782
14421SOL     OW55321   4.142   5.787   6.530
14421SOL    HW155322   4.171   5.883   6.533
14421SOL    HW255323   4.216   5.731   6.494
14422SOL     OW55324   3.968   6.337   5.949
14422SOL    HW155325   3.968   6.384   6.038
14422SOL    HW255326   3.890   6.368   5.895
14423SOL     OW55327   4.427   7.278   6.134
14423SOL    HW155328   4.494   7.214   6.099
14423SOL    HW255329   4.420   7.357   6.073
14424SOL     OW55330   5.412   7.172   5.931
14424SOL    HW155331   5.481   7.233   5.970
14424SOL    HW255332   5.398   7.194   5.834
14425SOL     OW55333   5.381   5.845   6.644
14425SOL    HW155334   5.426   5.931   6.667
14425SOL    HW255335   5.282   5.858   6.646
14426SOL     OW55336   4.773   5.936   5.878
14426SOL    HW155337   4.823   6.018   5.904
14426SOL    HW255338   4.771   5.872   5.954
14427SOL     OW55339   3.960   6.503   7.183
14427SOL    HW155340   4.000   6.584   7.225
14427SOL    HW255341   3.877   6.477   7.232
14428SOL     OW55342   4.135   6.237   5.554
14428SOL    HW155343   4.130   6.337   5.564
14428SOL    HW255344   4.216   6.214   5.500
14429SOL     OW55345   4.370   7.142   6.362
14429SOL    HW155346   4.401   7.200   6.287
14429SOL    HW255347   4.298   7.081   6.329
14430SOL     OW55348   4.628   6.196   7.159
14430SOL    HW155349   4.630   6.102   7.193
14430SOL    HW255350   4.711   6.215   7.106
14431SOL     OW55351   4.003   6.755   6.001
14431SOL    HW155352   4.055   6.749   6.086
14431SOL    HW255353   4.059   6.720   5.925
14432SOL     OW55354   4.880   5.830   5.652
14432SOL    HW155355   4.946   5.759   5.678
14432SOL    HW255356   4.836   5.866   5.734
14433SOL     OW55357   4.080   5.776   5.982
14433SOL    HW155358   4.028   5.816   6.057
14433SOL    HW255359   4.041   5.804   5.895
14434SOL     OW55360   5.502   6.080   6.723
14434SOL    HW155361   5.582   6.139   6.722
14434SOL    HW255362   5.464   6.076   6.815
14435SOL     OW55363   4.660   5.960   6.219
14435SOL    HW155364   4.723   5.979   6.293
14435SOL    HW255365   4.631   6.046   6.176
14436SOL     OW55366   4.923   6.512   5.764
14436SOL    HW155367   4.965   6.469   5.844
14436SOL    HW255368   4.878   6.442   5.708
14437SOL     OW55369   4.674   5.954   7.286
14437SOL    HW155370   4.718   6.014   7.352
14437SOL    HW255371   4.631   5.877   7.333
14438SOL     OW55372   5.447   6.214   5.901
14438SOL    HW155373   5.400   6.127   5.916
14438SOL    HW255374   5.506   6.234   5.979
14439SOL     OW55375   4.686   7.323   5.646
14439SOL    HW155376   4.713   7.276   5.562
14439SOL    HW255377   4.711   7.267   5.725
14440SOL     OW55378   4.444   5.564   7.317
14440SOL    HW155379   4.474   5.473   7.290
14440SOL    HW255380   4.518   5.611   7.366
14441SOL     OW55381   5.446   6.166   6.470
14441SOL    HW155382   5.430   6.264   6.485
14441SOL    HW255383   5.458   6.120   6.558
14442SOL     OW55384   4.761   6.869   7.274
14442SOL    HW155385   4.803   6.779   7.260
14442SOL    HW255386   4.717   6.899   7.189
14443SOL     OW55387   4.463   6.653   7.305
14443SOL    HW155388   4.368   6.679   7.291
14443SOL    HW255389   4.469   6.581   7.374
14444SOL     OW55390   5.191   5.464   6.473
14444SOL    HW155391   5.126   5.540   6.482
14444SOL    HW255392   5.246   5.477   6.390
14445SOL     OW55393   5.479   5.773   7.336
14445SOL    HW155394   5.427   5.799   7.418
14445SOL    HW255395   5.420   5.719   7.276
14446SOL     OW55396   3.632   6.166   6.112
14446SOL    HW155397   3.582   6.112   6.179
14446SOL    HW255398   3.635   6.261   6.140
14447SOL     OW55399   3.907   5.711   6.391
14447SOL    HW155400   3.980   5.746   6.450
14447SOL    HW255401   3.920   5.613   6.375
14448SOL     OW55402   3.999   5.725   6.761
14448SOL    HW155403   4.010   5.627   6.778
14448SOL    HW255404   4.050   5.750   6.679
14449SOL     OW55405   3.921   7.019   5.973
14449SOL    HW155406   3.943   6.921   5.980
14449SOL    HW255407   3.926   7.048   5.878
14450SOL     OW55408   3.944   7.171   6.197
14450SOL    HW155409   3.875   7.243   6.201
14450SOL    HW255410   3.929   7.117   6.113
14451SOL     OW55411   4.165   6.510   5.579
14451SOL    HW155412   4.141   6.565   5.498
14451SOL    HW255413   4.157   6.567   5.661
14452SOL     OW55414   3.781   6.314   5.709
14452SOL    HW155415   3.847   6.239   5.711
14452SOL    HW255416   3.697   6.287   5.755
14453SOL     OW55417   5.325   6.458   5.918
14453SOL    HW155418   5.369   6.369   5.909
14453SOL    HW255419   5.369   6.523   5.856
14454SOL     OW55420   4.630   7.333   6.618
14454SOL    HW155421   4.656   7.245   6.578
14454SOL    HW255422   4.532   7.334   6.637
14455SOL     OW55423   4.433   6.441   5.587
14455SOL    HW155424   4.453   6.353   5.630
14455SOL    HW255425   4.334   6.455   5.584
14456SOL     OW55426   5.080   5.956   5.993
14456SOL    HW155427   5.034   6.033   5.949
14456SOL    HW255428   5.179   5.967   5.986
14457SOL     OW55429   3.796   5.766   6.947
14457SOL    HW155430   3.867   5.768   6.876
14457SOL    HW255431   3.706   5.776   6.905
14458SOL     OW55432   5.356   5.966   6.000
14458SOL    HW155433   5.447   5.932   5.976
14458SOL    HW255434   5.348   5.974   6.099
14459SOL     OW55435   4.622   7.100   6.467
14459SOL    HW155436   4.681   7.084   6.388
14459SOL    HW255437   4.527   7.108   6.437
14460SOL     OW55438   4.516   5.926   5.789
14460SOL    HW155439   4.452   5.897   5.860
14460SOL    HW255440   4.607   5.935   5.828
14461SOL     OW55441   4.648   6.826   5.672
14461SOL    HW155442   4.713   6.817   5.747
14461SOL    HW255443   4.696   6.823   5.585
14462SOL     OW55444   5.287   7.112   6.170
14462SOL    HW155445   5.303   7.195   6.224
14462SOL    HW255446   5.325   7.124   6.079
14463SOL     OW55447   4.520   7.165   7.177
14463SOL    HW155448   4.471   7.114   7.107
14463SOL    HW255449   4.518   7.113   7.263
14464SOL     OW55450   4.012   6.720   6.463
14464SOL    HW155451   3.912   6.720   6.460
14464SOL    HW255452   4.042   6.731   6.558
14465SOL     OW55453   3.752   5.859   5.941
14465SOL    HW155454   3.814   5.867   5.864
14465SOL    HW255455   3.803   5.872   6.027
14466SOL     OW55456   5.409   7.293   5.679
14466SOL    HW155457   5.503   7.329   5.682
14466SOL    HW255458   5.394   7.247   5.592
14467SOL     OW55459   4.722   6.474   6.933
14467SOL    HW155460   4.673   6.544   6.985
14467SOL    HW255461   4.666   6.444   6.856
14468SOL     OW55462   3.768   7.390   6.971
14468SOL    HW155463   3.716   7.475   6.963
14468SOL    HW255464   3.756   7.353   7.064
14469SOL     OW55465   4.498   6.390   5.911
14469SOL    HW155466   4.399   6.401   5.923
14469SOL    HW255467   4.516   6.324   5.838
14470SOL     OW55468   3.972   7.352   5.753
14470SOL    HW155469   4.066   7.369   5.725
14470SOL    HW255470   3.963   7.369   5.852
14471SOL     OW55471   4.953   7.235   6.645
14471SOL    HW155472   4.988   7.297   6.574
14471SOL    HW255473   4.962   7.140   6.613
14472SOL     OW55474   3.728   6.703   6.474
14472SOL    HW155475   3.642   6.720   6.426
14472SOL    HW255476   3.758   6.609   6.458
14473SOL     OW55477   4.519   5.584   6.001
14473SOL    HW155478   4.488   5.513   5.937
14473SOL    HW255479   4.458   5.663   5.994
14474SOL     OW55480   3.746   6.630   6.008
14474SOL    HW155481   3.837   6.667   6.028
14474SOL    HW255482   3.737   6.616   5.909
14475SOL     OW55483   5.182   5.878   7.119
14475SOL    HW155484   5.146   5.954   7.064
14475SOL    HW255485   5.225   5.913   7.202
14476SOL     OW55486   5.045   5.703   6.462
14476SOL    HW155487   5.057   5.757   6.379
14476SOL    HW255488   5.073   5.757   6.541
14477SOL     OW55489   5.067   5.645   5.734
14477SOL    HW155490   5.072   5.547   5.712
14477SOL    HW255491   5.041   5.655   5.830
14478SOL     OW55492   5.319   5.645   7.149
14478SOL    HW155493   5.358   5.621   7.060
14478SOL    HW255494   5.255   5.722   7.138
14479SOL     OW55495   4.402   5.867   6.247
14479SOL    HW155496   4.387   5.793   6.313
14479SOL    HW255497   4.497   5.897   6.252
14480SOL     OW55498   5.275   5.591   5.992
14480SOL    HW155499   5.294   5.554   5.901
14480SOL    HW255500   5.180   5.620   5.997
14481SOL     OW55501   4.234   6.954   7.331
14481SOL    HW155502   4.196   7.025   7.271
14481SOL    HW255503   4.329   6.976   7.352
14482SOL     OW55504   4.190   6.694   7.247
14482SOL    HW155505   4.214   6.686   7.150
14482SOL    HW255506   4.189   6.790   7.273
14483SOL     OW55507   3.796   6.896   6.659
14483SOL    HW155508   3.770   6.830   6.588
14483SOL    HW255509   3.727   6.897   6.731
14484SOL     OW55510   4.849   5.968   6.418
14484SOL    HW155511   4.935   5.952   6.369
14484SOL    HW255512   4.812   5.882   6.451
14485SOL     OW55513   5.488   6.167   7.204
14485SOL    HW155514   5.485   6.252   7.150
14485SOL    HW255515   5.578   6.158   7.246
14486SOL     OW55516   5.108   5.890   6.656
14486SOL    HW155517   5.045   5.962   6.628
14486SOL    HW255518   5.079   5.854   6.745
14487SOL     OW55519   5.285   6.024   7.327
14487SOL    HW155520   5.363   6.075   7.291
14487SOL    HW255521   5.311   5.978   7.412
14488SOL     OW55522   5.060   6.399   5.973
14488SOL    HW155523   5.048   6.428   6.068
14488SOL    HW255524   5.155   6.415   5.946
14489SOL     OW55525   5.245   6.549   6.161
14489SOL    HW155526   5.277   6.522   6.070
14489SOL    HW255527   5.245   6.648   6.168
14490SOL     OW55528   5.476   6.387   7.043
14490SOL    HW155529   5.391   6.438   7.037
14490SOL    HW255530   5.553   6.451   7.052
14491SOL     OW55531   5.283   5.826   5.705
14491SOL    HW155532   5.316   5.847   5.797
14491SOL    HW255533   5.208   5.760   5.710
14492SOL     OW55534   4.398   7.036   6.962
14492SOL    HW155535   4.333   7.111   6.951
14492SOL    HW255536   4.372   6.960   6.902
14493SOL     OW55537   3.829   5.800   7.218
14493SOL    HW155538   3.825   5.793   7.118
14493SOL    HW255539   3.740   5.775   7.256
14494SOL     OW55540   3.745   7.278   7.224
14494SOL    HW155541   3.831   7.293   7.274
14494SOL    HW255542   3.669   7.273   7.289
14495SOL     OW55543   3.901   5.873   6.168
14495SOL    HW155544   3.891   5.966   6.204
14495SOL    HW255545   3.898   5.807   6.243
14496SOL     OW55546   5.099   7.144   7.127
14496SOL    HW155547   5.005   7.174   7.139
14496SOL    HW255548   5.159   7.223   7.120
14497SOL     OW55549   3.991   6.131   5.760
14497SOL    HW155550   4.054   6.164   5.689
14497SOL    HW255551   3.998   6.189   5.840
14498SOL     OW55552   5.474   5.792   6.906
14498SOL    HW155553   5.430   5.871   6.948
14498SOL    HW255554   5.443   5.782   6.812
14499SOL     OW55555   4.160   7.358   6.213
14499SOL    HW155556   4.103   7.276   6.222
14499SOL    HW255557   4.253   7.331   6.190
14500SOL     OW55558   4.050   6.862   6.761
14500SOL    HW155559   4.047   6.883   6.859
14500SOL    HW255560   3.959   6.876   6.721
14501SOL     OW55561   4.825   7.110   7.388
14501SOL    HW155562   4.798   7.021   7.352
14501SOL    HW255563   4.841   7.173   7.312
14502SOL     OW55564   4.473   6.861   6.037
14502SOL    HW155565   4.480   6.785   5.973
14502SOL    HW255566   4.511   6.833   6.126
14503SOL     OW55567   3.986   6.486   6.179
14503SOL    HW155568   3.927   6.481   6.260
14503SOL    HW255569   4.053   6.559   6.192
14504SOL     OW55570   3.951   5.861   5.751
14504SOL    HW155571   3.999   5.821   5.673
14504SOL    HW255572   3.963   5.960   5.752
14505SOL     OW55573   4.201   6.677   5.807
14505SOL    HW155574   4.300   6.678   5.820
14505SOL    HW255575   4.172   6.764   5.767
14506SOL     OW55576   4.826   6.260   5.637
14506SOL    HW155577   4.775   6.313   5.570
14506SOL    HW255578   4.881   6.191   5.590
14507SOL     OW55579   4.544   6.206   5.712
14507SOL    HW155580   4.641   6.209   5.688
14507SOL    HW255581   4.515   6.111   5.727
14508SOL     OW55582   5.010   5.693   5.994
14508SOL    HW155583   4.918   5.685   6.031
14508SOL    HW255584   5.039   5.789   5.997
14509SOL     OW55585   5.119   6.128   7.024
14509SOL    HW155586   5.133   6.187   7.104
14509SOL    HW255587   5.028   6.143   6.987
14510SOL     OW55588   3.800   5.604   5.719
14510SOL    HW155589   3.875   5.540   5.738
14510SOL    HW255590   3.834   5.697   5.728
14511SOL     OW55591   5.442   6.615   5.729
14511SOL    HW155592   5.527   6.594   5.680
14511SOL    HW255593   5.364   6.603   5.668
14512SOL     OW55594   4.581   6.666   7.062
14512SOL    HW155595   4.614   6.758   7.041
14512SOL    HW255596   4.550   6.662   7.157
14513SOL     OW55597   4.868   6.617   7.247
14513SOL    HW155598   4.809   6.542   7.276
14513SOL    HW255599   4.946   6.624   7.310
14514SOL     OW55600   4.744   5.740   6.070
14514SOL    HW155601   4.714   5.806   6.139
14514SOL    HW255602   4.670   5.676   6.050
14515SOL     OW55603   4.871   7.288   7.189
14515SOL    HW155604   4.807   7.316   7.118
14515SOL    HW255605   4.919   7.368   7.225
14516SOL     OW55606   4.353   5.649   6.416
14516SOL    HW155607   4.312   5.569   6.372
14516SOL    HW255608   4.439   5.622   6.460
14517SOL     OW55609   3.990   7.344   6.815
14517SOL    HW155610   3.958   7.278   6.747
14517SOL    HW255611   3.916   7.362   6.881
14518SOL     OW55612   4.599   6.817   6.287
14518SOL    HW155613   4.660   6.896   6.275
14518SOL    HW255614   4.653   6.738   6.315
14519SOL     OW55615   3.977   5.518   6.020
14519SOL    HW155616   4.027   5.604   6.020
14519SOL    HW255617   3.880   5.535   6.039
14520SOL     OW55618   4.347   6.212   7.193
14520SOL    HW155619   4.298   6.281   7.139
14520SOL    HW255620   4.444   6.215   7.170
14521SOL     OW55621   3.748   6.605   5.737
14521SOL    HW155622   3.772   6.518   5.693
14521SOL    HW255623   3.801   6.679   5.695
14522SOL     OW55624   5.457   5.751   6.394
14522SOL    HW155625   5.428   5.770   6.487
14522SOL    HW255626   5.551   5.718   6.394
14523SOL     OW55627   4.475   6.799   6.553
14523SOL    HW155628   4.561   6.822   6.599
14523SOL    HW255629   4.486   6.811   6.454
14524SOL     OW55630   4.939   6.167   5.879
14524SOL    HW155631   4.980   6.246   5.925
14524SOL    HW255632   4.894   6.196   5.795
14525SOL     OW55633   5.246   6.935   7.213
14525SOL    HW155634   5.197   6.858   7.254
14525SOL    HW255635   5.180   6.999   7.175
14526SOL     OW55636   4.200   6.411   7.072
14526SOL    HW155637   4.239   6.494   7.033
14526SOL    HW255638   4.107   6.429   7.105
14527SOL     OW55639   4.498   7.029   5.557
14527SOL    HW155640   4.452   7.085   5.625
14527SOL    HW255641   4.555   6.960   5.604
14528SOL     OW55642   4.353   7.297   6.588
14528SOL    HW155643   4.353   7.236   6.509
14528SOL    HW255644   4.297   7.258   6.661
14529SOL     OW55645   4.611   7.098   6.030
14529SOL    HW155646   4.672   7.109   5.951
14529SOL    HW255647   4.560   7.013   6.020
14530SOL     OW55648   3.800   6.454   6.389
14530SOL    HW155649   3.805   6.368   6.441
14530SOL    HW255650   3.732   6.444   6.316
14531SOL     OW55651   3.723   6.445   7.320
14531SOL    HW155652   3.626   6.466   7.323
14531SOL    HW255653   3.750   6.396   7.403
14532SOL     OW55654   4.669   7.311   6.992
14532SOL    HW155655   4.626   7.255   7.062
14532SOL    HW255656   4.601   7.372   6.952
14533SOL     OW55657   4.714   6.910   6.635
14533SOL    HW155658   4.677   6.982   6.576
14533SOL    HW255659   4.744   6.951   6.722
14534SOL     OW55660   4.199   5.945   7.360
14534SOL    HW155661   4.275   5.923   7.298
14534SOL    HW255662   4.204   6.041   7.386
14535SOL     OW55663   4.230   6.427   5.924
14535SOL    HW155664   4.213   6.517   5.885
14535SOL    HW255665   4.142   6.380   5.938
14536SOL     OW55666   5.426   6.403   6.645
14536SOL    HW155667   5.346   6.462   6.656
14536SOL    HW255668   5.442   6.353   6.731
14537SOL     OW55669   5.026   5.790   6.893
14537SOL    HW155670   5.064   5.798   6.985
14537SOL    HW255671   4.957   5.717   6.891
14538SOL     OW55672   3.716   5.603   6.041
14538SOL    HW155673   3.621   5.573   6.035
14538SOL    HW255674   3.726   5.693   5.999
14539SOL     OW55675   4.900   5.780   7.256
14539SOL    HW155676   4.892   5.757   7.353
14539SOL    HW255677   4.818   5.828   7.225
14540SOL     OW55678   4.125   7.149   7.171
14540SOL    HW155679   4.075   7.212   7.230
14540SOL    HW255680   4.164   7.199   7.094
14541SOL     OW55681   5.471   6.938   7.061
14541SOL    HW155682   5.474   7.029   7.020
14541SOL    HW255683   5.388   6.929   7.116
14542SOL     OW55684   4.166   7.012   6.226
14542SOL    HW155685   4.152   6.913   6.226
14542SOL    HW255686   4.078   7.058   6.227
14543SOL     OW55687   4.780   7.103   6.835
14543SOL    HW155688   4.734   7.176   6.885
14543SOL    HW255689   4.848   7.143   6.773
14544SOL     OW55690   3.988   7.319   7.353
14544SOL    HW155691   4.013   7.416   7.357
14544SOL    HW255692   3.988   7.281   7.446
14545SOL     OW55693   3.863   6.796   7.210
14545SOL    HW155694   3.821   6.715   7.168
14545SOL    HW255695   3.797   6.871   7.213
14546SOL     OW55696   3.873   7.164   6.630
14546SOL    HW155697   3.854   7.067   6.644
14546SOL    HW255698   3.898   7.179   6.535
14547SOL     OW55699   4.766   5.712   6.480
14547SOL    HW155700   4.861   5.682   6.479
14547SOL    HW255701   4.706   5.633   6.492
14548SOL     OW55702   4.814   6.761   5.879
14548SOL    HW155703   4.883   6.792   5.944
14548SOL    HW255704   4.831   6.665   5.856
14549SOL     OW55705   5.348   5.977   6.280
14549SOL    HW155706   5.374   6.053   6.339
14549SOL    HW255707   5.390   5.893   6.313
14550SOL     OW55708   4.474   6.670   5.838
14550SOL    HW155709   4.535   6.712   5.772
14550SOL    HW255710   4.503   6.575   5.854
14551SOL     OW55711   4.502   5.678   5.665
14551SOL    HW155712   4.578   5.618   5.690
14551SOL    HW255713   4.512   5.766   5.711
14552SOL     OW55714   4.311   6.656   6.996
14552SOL    HW155715   4.408   6.648   7.018
14552SOL    HW255716   4.299   6.717   6.918
14553SOL     OW55717   5.454   6.685   6.947
14553SOL    HW155718   5.469   6.779   6.975
14553SOL    HW255719   5.516   6.662   6.872
14554SOL     OW55720   3.895   6.808   5.628
14554SOL    HW155721   3.873   6.832   5.534
14554SOL    HW255722   3.979   6.854   5.656
14555SOL     OW55723   4.345   7.168   5.730
14555SOL    HW155724   4.294   7.252   5.712
14555SOL    HW255725   4.320   7.133   5.820
14556SOL     OW55726   4.983   6.571   7.003
14556SOL    HW155727   4.947   6.600   7.091
14556SOL    HW255728   4.907   6.547   6.942
14557SOL     OW55729   4.229   7.261   6.936
14557SOL    HW155730   4.294   7.336   6.934
14557SOL    HW255731   4.144   7.290   6.891
14558SOL     OW55732   3.854   6.058   7.313
14558SOL    HW155733   3.851   5.966   7.276
14558SOL    HW255734   3.946   6.095   7.305
14559SOL     OW55735   3.628   6.436   6.178
14559SOL    HW155736   3.671   6.501   6.116
14559SOL    HW255737   3.533   6.464   6.196
14560SOL     OW55738   4.321   6.837   6.784
14560SOL    HW155739   4.223   6.847   6.764
14560SOL    HW255740   4.370   6.819   6.699
14561SOL     OW55741   4.032   6.925   7.028
14561SOL    HW155742   4.067   7.007   7.075
14561SOL    HW255743   3.977   6.872   7.092
14562SOL     OW55744   5.375   7.164   7.310
14562SOL    HW155745   5.333   7.076   7.287
14562SOL    HW255746   5.329   7.237   7.261
14563SOL     OW55747   5.055   6.807   6.012
14563SOL    HW155748   5.133   6.820   6.074
14563SOL    HW255749   5.086   6.764   5.928
14564SOL     OW55750   4.356   5.808   5.987
14564SOL    HW155751   4.258   5.792   5.974
14564SOL    HW255752   4.372   5.838   6.081
14565SOL     OW55753   5.340   5.535   6.255
14565SOL    HW155754   5.310   5.558   6.162
14565SOL    HW255755   5.381   5.615   6.298
14566SOL     OW55756   4.868   6.278   7.055
14566SOL    HW155757   4.941   6.315   7.111
14566SOL    HW255758   4.823   6.352   7.005
14567SOL     OW55759   4.963   6.998   6.520
14567SOL    HW155760   4.887   6.934   6.534
14567SOL    HW255761   4.979   7.010   6.422
14568SOL     OW55762   5.079   5.908   6.271
14568SOL    HW155763   5.057   5.923   6.174
14568SOL    HW255764   5.174   5.936   6.288
14569SOL     OW55765   4.761   6.976   8.124
14569SOL    HW155766   4.854   7.011   8.123
14569SOL    HW255767   4.713   7.007   8.041
14570SOL     OW55768   5.307   6.832   7.941
14570SOL    HW155769   5.318   6.900   8.014
14570SOL    HW255770   5.396   6.792   7.919
14571SOL     OW55771   5.315   6.194   8.760
14571SOL    HW155772   5.251   6.144   8.818
14571SOL    HW255773   5.374   6.250   8.818
14572SOL     OW55774   4.029   5.741   7.391
14572SOL    HW155775   3.955   5.754   7.326
14572SOL    HW255776   4.098   5.812   7.379
14573SOL     OW55777   5.013   7.086   8.174
14573SOL    HW155778   5.007   7.184   8.188
14573SOL    HW255779   5.109   7.059   8.166
14574SOL     OW55780   4.888   5.618   8.716
14574SOL    HW155781   4.811   5.561   8.744
14574SOL    HW255782   4.946   5.568   8.652
14575SOL     OW55783   4.661   6.423   9.142
14575SOL    HW155784   4.644   6.358   9.068
14575SOL    HW255785   4.574   6.448   9.186
14576SOL     OW55786   4.250   7.026   7.812
14576SOL    HW155787   4.206   7.055   7.897
14576SOL    HW255788   4.319   6.956   7.831
14577SOL     OW55789   4.258   5.598   7.517
14577SOL    HW155790   4.322   5.586   7.441
14577SOL    HW255791   4.179   5.651   7.486
14578SOL     OW55792   5.270   6.572   8.887
14578SOL    HW155793   5.176   6.603   8.873
14578SOL    HW255794   5.328   6.608   8.814
14579SOL     OW55795   5.105   6.590   8.592
14579SOL    HW155796   5.060   6.600   8.680
14579SOL    HW255797   5.153   6.675   8.569
14580SOL     OW55798   4.634   6.888   8.864
14580SOL    HW155799   4.553   6.943   8.841
14580SOL    HW255800   4.649   6.820   8.792
14581SOL     OW55801   4.165   6.772   8.077
14581SOL    HW155802   4.112   6.721   8.145
14581SOL    HW255803   4.261   6.745   8.083
14582SOL     OW55804   4.404   6.157   7.966
14582SOL    HW155805   4.438   6.232   7.909
14582SOL    HW255806   4.378   6.081   7.907
14583SOL     OW55807   4.947   6.084   9.134
14583SOL    HW155808   5.042   6.067   9.163
14583SOL    HW255809   4.893   6.001   9.146
14584SOL     OW55810   4.117   6.928   7.581
14584SOL    HW155811   4.162   6.950   7.494
14584SOL    HW255812   4.163   6.976   7.655
14585SOL     OW55813   4.228   5.863   8.402
14585SOL    HW155814   4.291   5.939   8.392
14585SOL    HW255815   4.270   5.779   8.366
14586SOL     OW55816   4.032   6.291   7.891
14586SOL    HW155817   4.064   6.319   7.982
14586SOL    HW255818   3.934   6.274   7.894
14587SOL     OW55819   4.439   7.263   7.998
14587SOL    HW155820   4.500   7.190   7.966
14587SOL    HW255821   4.444   7.340   7.935
14588SOL     OW55822   5.497   7.170   7.810
14588SOL    HW155823   5.583   7.123   7.792
14588SOL    HW255824   5.456   7.197   7.723
14589SOL     OW55825   5.357   5.868   8.505
14589SOL    HW155826   5.397   5.959   8.514
14589SOL    HW255827   5.257   5.876   8.505
14590SOL     OW55828   4.779   5.890   7.730
14590SOL    HW155829   4.831   5.975   7.732
14590SOL    HW255830   4.785   5.846   7.820
14591SOL     OW55831   3.860   6.556   8.975
14591SOL    HW155832   3.951   6.590   8.998
14591SOL    HW255833   3.816   6.519   9.058
14592SOL     OW55834   4.190   6.227   7.411
14592SOL    HW155835   4.175   6.325   7.428
14592SOL    HW255836   4.248   6.216   7.331
14593SOL     OW55837   4.349   7.137   8.224
14593SOL    HW155838   4.395   7.190   8.152
14593SOL    HW255839   4.265   7.097   8.187
14594SOL     OW55840   4.660   6.189   8.980
14594SOL    HW155841   4.703   6.116   9.033
14594SOL    HW255842   4.729   6.230   8.919
14595SOL     OW55843   5.292   7.008   8.198
14595SOL    HW155844   5.294   7.035   8.294
14595SOL    HW255845   5.353   7.067   8.145
14596SOL     OW55846   3.992   6.804   7.862
14596SOL    HW155847   4.052   6.798   7.941
14596SOL    HW255848   4.029   6.749   7.787
14597SOL     OW55849   4.876   5.738   7.524
14597SOL    HW155850   4.969   5.705   7.541
14597SOL    HW255851   4.845   5.793   7.602
14598SOL     OW55852   4.057   6.066   8.639
14598SOL    HW155853   4.049   5.966   8.630
14598SOL    HW255854   3.976   6.109   8.598
14599SOL     OW55855   5.087   6.320   8.672
14599SOL    HW155856   5.101   6.414   8.642
14599SOL    HW255857   5.174   6.280   8.702
14600SOL     OW55858   4.072   5.848   7.841
14600SOL    HW155859   4.021   5.888   7.917
14600SOL    HW255860   4.027   5.871   7.755
14601SOL     OW55861   5.453   6.120   8.539
14601SOL    HW155862   5.547   6.153   8.546
14601SOL    HW255863   5.402   6.148   8.620
14602SOL     OW55864   5.555   7.295   8.420
14602SOL    HW155865   5.575   7.390   8.445
14602SOL    HW255866   5.641   7.248   8.399
14603SOL     OW55867   4.621   5.999   8.049
14603SOL    HW155868   4.690   6.043   8.106
14603SOL    HW255869   4.551   6.067   8.024
14604SOL     OW55870   4.913   6.505   7.525
14604SOL    HW155871   4.935   6.451   7.607
14604SOL    HW255872   4.836   6.462   7.478
14605SOL     OW55873   4.766   5.877   9.173
14605SOL    HW155874   4.783   5.866   9.271
14605SOL    HW255875   4.678   5.836   9.149
14606SOL     OW55876   5.446   6.230   7.754
14606SOL    HW155877   5.401   6.142   7.768
14606SOL    HW255878   5.511   6.246   7.829
14607SOL     OW55879   4.684   7.298   7.546
14607SOL    HW155880   4.716   7.239   7.472
14607SOL    HW255881   4.700   7.253   7.634
14608SOL     OW55882   4.508   5.584   9.082
14608SOL    HW155883   4.526   5.486   9.068
14608SOL    HW255884   4.514   5.605   9.180
14609SOL     OW55885   5.384   6.215   8.292
14609SOL    HW155886   5.337   6.303   8.300
14609SOL    HW255887   5.402   6.179   8.383
14610SOL     OW55888   4.767   6.855   9.100
14610SOL    HW155889   4.813   6.767   9.090
14610SOL    HW255890   4.716   6.876   9.016
14611SOL     OW55891   4.430   6.678   9.112
14611SOL    HW155892   4.367   6.755   9.120
14611SOL    HW255893   4.421   6.619   9.192
14612SOL     OW55894   5.103   5.509   8.282
14612SOL    HW155895   5.060   5.599   8.284
14612SOL    HW255896   5.192   5.516   8.237
14613SOL     OW55897   5.429   5.777   9.182
14613SOL    HW155898   5.365   5.814   9.250
14613SOL    HW255899   5.487   5.708   9.226
14614SOL     OW55900   3.767   6.262   7.962
14614SOL    HW155901   3.771   6.195   8.036
14614SOL    HW255902   3.741   6.351   7.999
14615SOL     OW55903   4.024   5.765   8.215
14615SOL    HW155904   4.084   5.813   8.279
14615SOL    HW255905   4.073   5.688   8.174
14616SOL     OW55906   4.058   5.786   8.610
14616SOL    HW155907   4.045   5.687   8.614
14616SOL    HW255908   4.118   5.808   8.533
14617SOL     OW55909   4.818   6.332   8.342
14617SOL    HW155910   4.880   6.396   8.296
14617SOL    HW255911   4.800   6.255   8.281
14618SOL     OW55912   3.887   7.059   7.785
14618SOL    HW155913   3.923   6.967   7.800
14618SOL    HW255914   3.943   7.107   7.718
14619SOL     OW55915   5.169   6.863   8.574
14619SOL    HW155916   5.111   6.891   8.497
14619SOL    HW255917   5.122   6.883   8.660
14620SOL     OW55918   3.871   7.113   8.059
14620SOL    HW155919   3.777   7.138   8.082
14620SOL    HW255920   3.878   7.101   7.960
14621SOL     OW55921   5.428   6.929   8.622
14621SOL    HW155922   5.439   6.947   8.720
14621SOL    HW255923   5.335   6.899   8.603
14622SOL     OW55924   4.193   6.501   7.445
14622SOL    HW155925   4.183   6.558   7.363
14622SOL    HW255926   4.166   6.554   7.526
14623SOL     OW55927   4.643   6.678   8.675
14623SOL    HW155928   4.687   6.592   8.650
14623SOL    HW255929   4.583   6.709   8.601
14624SOL     OW55930   3.780   6.326   7.566
14624SOL    HW155931   3.861   6.267   7.571
14624SOL    HW255932   3.707   6.287   7.622
14625SOL     OW55933   5.269   6.441   7.779
14625SOL    HW155934   5.331   6.363   7.773
14625SOL    HW255935   5.291   6.506   7.707
14626SOL     OW55936   4.572   7.369   8.384
14626SOL    HW155937   4.608   7.280   8.356
14626SOL    HW255938   4.492   7.355   8.442
14627SOL     OW55939   4.462   6.438   7.482
14627SOL    HW155940   4.485   6.346   7.512
14627SOL    HW255941   4.362   6.445   7.470
14628SOL     OW55942   5.080   5.957   7.839
14628SOL    HW155943   5.030   6.022   7.781
14628SOL    HW255944   5.178   5.973   7.830
14629SOL     OW55945   3.988   6.211   8.867
14629SOL    HW155946   4.009   6.136   8.804
14629SOL    HW255947   3.944   6.174   8.949
14630SOL     OW55948   3.879   5.840   8.822
14630SOL    HW155949   3.947   5.821   8.751
14630SOL    HW255950   3.788   5.822   8.786
14631SOL     OW55951   4.708   6.421   8.589
14631SOL    HW155952   4.737   6.392   8.498
14631SOL    HW255953   4.626   6.369   8.615
14632SOL     OW55954   5.356   5.981   7.841
14632SOL    HW155955   5.446   5.940   7.826
14632SOL    HW255956   5.340   5.991   7.940
14633SOL     OW55957   4.615   7.112   8.311
14633SOL    HW155958   4.671   7.058   8.248
14633SOL    HW255959   4.519   7.099   8.290
14634SOL     OW55960   4.523   5.928   7.646
14634SOL    HW155961   4.453   5.912   7.716
14634SOL    HW255962   4.614   5.914   7.685
14635SOL     OW55963   4.649   6.842   7.541
14635SOL    HW155964   4.707   6.822   7.620
14635SOL    HW255965   4.703   6.838   7.457
14636SOL     OW55966   5.456   7.185   8.074
14636SOL    HW155967   5.456   7.281   8.102
14636SOL    HW255968   5.463   7.180   7.974
14637SOL     OW55969   4.881   6.454   7.977
14637SOL    HW155970   4.920   6.475   8.067
14637SOL    HW255971   4.790   6.496   7.971
14638SOL     OW55972   4.496   7.159   9.034
14638SOL    HW155973   4.457   7.104   8.960
14638SOL    HW255974   4.507   7.102   9.116
14639SOL     OW55975   5.012   6.499   8.220
14639SOL    HW155976   5.097   6.473   8.265
14639SOL    HW255977   4.970   6.576   8.269
14640SOL     OW55978   4.020   6.633   8.260
14640SOL    HW155979   3.927   6.670   8.264
14640SOL    HW255980   4.052   6.614   8.352
14641SOL     OW55981   4.627   6.558   7.929
14641SOL    HW155982   4.585   6.483   7.878
14641SOL    HW255983   4.562   6.591   7.998
14642SOL     OW55984   5.009   6.930   8.784
14642SOL    HW155985   5.042   6.984   8.861
14642SOL    HW255986   4.946   6.985   8.729
14643SOL     OW55987   3.740   5.888   7.806
14643SOL    HW155988   3.801   5.898   7.727
14643SOL    HW255989   3.793   5.902   7.891
14644SOL     OW55990   5.402   7.266   7.564
14644SOL    HW155991   5.476   7.333   7.562
14644SOL    HW255992   5.396   7.220   7.476
14645SOL     OW55993   4.508   6.302   8.765
14645SOL    HW155994   4.501   6.393   8.806
14645SOL    HW255995   4.557   6.241   8.827
14646SOL     OW55996   3.753   7.371   8.778
14646SOL    HW155997   3.701   7.457   8.777
14646SOL    HW255998   3.743   7.328   8.868
14647SOL     OW55999   4.493   6.352   7.796
14647SOL    HW156000   4.400   6.384   7.778
14647SOL    HW256001   4.527   6.302   7.716
14648SOL     OW56002   4.016   6.100   8.311
14648SOL    HW156003   4.075   6.075   8.234
14648SOL    HW256004   4.062   6.080   8.397
14649SOL     OW56005   4.008   7.302   7.645
14649SOL    HW156006   4.096   7.338   7.612
14649SOL    HW256007   3.997   7.324   7.742
14650SOL     OW56008   5.075   7.238   8.472
14650SOL    HW156009   5.049   7.288   8.389
14650SOL    HW256010   5.168   7.203   8.462
14651SOL     OW56011   3.760   6.725   8.329
14651SOL    HW156012   3.672   6.722   8.282
14651SOL    HW256013   3.760   6.658   8.404
14652SOL     OW56014   4.378   5.612   7.771
14652SOL    HW156015   4.336   5.606   7.680
14652SOL    HW256016   4.375   5.707   7.803
14653SOL     OW56017   3.730   6.699   7.896
14653SOL    HW156018   3.812   6.755   7.909
14653SOL    HW256019   3.733   6.655   7.806
14654SOL     OW56020   5.282   5.834   8.955
14654SOL    HW156021   5.239   5.925   8.958
14654SOL    HW256022   5.332   5.819   9.040
14655SOL     OW56023   5.001   5.767   8.303
14655SOL    HW156024   5.014   5.831   8.228
14655SOL    HW256025   5.031   5.809   8.389
14656SOL     OW56026   5.136   5.668   7.601
14656SOL    HW156027   5.202   5.594   7.592
14656SOL    HW256028   5.098   5.668   7.694
14657SOL     OW56029   5.280   5.552   8.965
14657SOL    HW156030   5.272   5.516   8.872
14657SOL    HW256031   5.272   5.652   8.963
14658SOL     OW56032   4.401   5.837   8.112
14658SOL    HW156033   4.396   5.761   8.177
14658SOL    HW256034   4.493   5.878   8.115
14659SOL     OW56035   4.937   6.154   8.517
14659SOL    HW156036   4.898   6.218   8.450
14659SOL    HW256037   4.991   6.205   8.584
14660SOL     OW56038   5.293   5.573   7.875
14660SOL    HW156039   5.306   5.514   7.796
14660SOL    HW256040   5.200   5.610   7.874
14661SOL     OW56041   4.257   6.921   9.142
14661SOL    HW156042   4.220   6.992   9.082
14661SOL    HW256043   4.342   6.954   9.184
14662SOL     OW56044   4.112   6.657   9.030
14662SOL    HW156045   4.164   6.634   8.948
14662SOL    HW256046   4.123   6.755   9.050
14663SOL     OW56047   3.810   6.938   8.495
14663SOL    HW156048   3.795   6.871   8.422
14663SOL    HW256049   3.732   6.937   8.558
14664SOL     OW56050   4.814   6.087   8.216
14664SOL    HW156051   4.900   6.048   8.186
14664SOL    HW256052   4.783   6.040   8.299
14665SOL     OW56053   5.440   6.168   9.109
14665SOL    HW156054   5.435   6.242   9.042
14665SOL    HW256055   5.536   6.151   9.133
14666SOL     OW56056   5.080   5.915   8.522
14666SOL    HW156057   5.036   6.004   8.512
14666SOL    HW256058   5.068   5.882   8.616
14667SOL     OW56059   5.209   6.041   9.197
14667SOL    HW156060   5.292   6.088   9.166
14667SOL    HW256061   5.232   5.979   9.272
14668SOL     OW56062   5.002   6.377   7.752
14668SOL    HW156063   4.952   6.404   7.835
14668SOL    HW256064   5.099   6.399   7.763
14669SOL     OW56065   5.250   6.526   8.042
14669SOL    HW156066   5.254   6.504   7.945
14669SOL    HW256067   5.156   6.516   8.075
14670SOL     OW56068   5.456   6.369   8.913
14670SOL    HW156069   5.386   6.439   8.901
14670SOL    HW256070   5.545   6.413   8.926
14671SOL     OW56071   5.324   5.868   7.554
14671SOL    HW156072   5.346   5.905   7.644
14671SOL    HW256073   5.250   5.801   7.563
14672SOL     OW56074   4.390   7.031   8.815
14672SOL    HW156075   4.333   7.109   8.790
14672SOL    HW256076   4.361   6.951   8.763
14673SOL     OW56077   3.859   5.841   9.094
14673SOL    HW156078   3.866   5.839   8.995
14673SOL    HW256079   3.766   5.816   9.121
14674SOL     OW56080   3.734   7.240   9.020
14674SOL    HW156081   3.821   7.257   9.067
14674SOL    HW256082   3.660   7.244   9.087
14675SOL     OW56083   3.883   5.910   8.036
14675SOL    HW156084   3.838   5.984   8.086
14675SOL    HW256085   3.934   5.853   8.100
14676SOL     OW56086   5.108   7.101   8.974
14676SOL    HW156087   5.030   7.163   8.981
14676SOL    HW256088   5.188   7.151   8.941
14677SOL     OW56089   4.010   6.173   7.619
14677SOL    HW156090   4.082   6.191   7.552
14677SOL    HW256091   4.038   6.210   7.708
14678SOL     OW56092   5.471   5.793   8.754
14678SOL    HW156093   5.400   5.814   8.821
14678SOL    HW256094   5.435   5.805   8.662
14679SOL     OW56095   4.198   7.389   8.080
14679SOL    HW156096   4.119   7.378   8.019
14679SOL    HW256097   4.274   7.333   8.046
14680SOL     OW56098   4.041   6.833   8.607
14680SOL    HW156099   4.040   6.860   8.703
14680SOL    HW256100   3.964   6.875   8.560
14681SOL     OW56101   4.817   7.119   9.196
14681SOL    HW156102   4.799   7.023   9.172
14681SOL    HW256103   4.846   7.169   9.114
14682SOL     OW56104   4.438   6.831   7.875
14682SOL    HW156105   4.453   6.771   7.796
14682SOL    HW256106   4.439   6.777   7.959
14683SOL     OW56107   4.090   6.382   8.147
14683SOL    HW156108   4.077   6.477   8.178
14683SOL    HW256109   4.176   6.347   8.184
14684SOL     OW56110   3.935   5.906   7.611
14684SOL    HW156111   3.966   5.857   7.530
14684SOL    HW256112   3.952   6.004   7.600
14685SOL     OW56113   3.771   6.106   8.186
14685SOL    HW156114   3.696   6.152   8.234
14685SOL    HW256115   3.853   6.110   8.242
14686SOL     OW56116   4.185   6.678   7.666
14686SOL    HW156117   4.285   6.680   7.666
14686SOL    HW256118   4.149   6.764   7.630
14687SOL     OW56119   4.808   6.161   7.439
14687SOL    HW156120   4.790   6.247   7.390
14687SOL    HW256121   4.887   6.115   7.398
14688SOL     OW56122   4.563   6.196   7.574
14688SOL    HW156123   4.653   6.188   7.531
14688SOL    HW256124   4.527   6.104   7.593
14689SOL     OW56125   5.038   5.691   7.857
14689SOL    HW156126   4.952   5.673   7.904
14689SOL    HW256127   5.055   5.789   7.854
14690SOL     OW56128   5.119   6.066   8.898
14690SOL    HW156129   5.061   6.102   8.971
14690SOL    HW256130   5.070   5.995   8.848
14691SOL     OW56131   3.761   5.582   7.574
14691SOL    HW156132   3.839   5.527   7.605
14691SOL    HW256133   3.794   5.671   7.542
14692SOL     OW56134   4.109   6.582   8.515
14692SOL    HW156135   4.096   6.516   8.589
14692SOL    HW256136   4.086   6.673   8.547
14693SOL     OW56137   5.349   6.585   7.563
14693SOL    HW156138   5.445   6.605   7.583
14693SOL    HW256139   5.337   6.572   7.465
14694SOL     OW56140   4.318   6.179   8.600
14694SOL    HW156141   4.369   6.229   8.670
14694SOL    HW256142   4.229   6.152   8.636
14695SOL     OW56143   4.515   6.550   8.885
14695SOL    HW156144   4.572   6.605   8.825
14695SOL    HW256145   4.500   6.599   8.971
14696SOL     OW56146   4.860   6.596   9.062
14696SOL    HW156147   4.778   6.543   9.084
14696SOL    HW256148   4.942   6.543   9.086
14697SOL     OW56149   4.777   5.784   7.983
14697SOL    HW156150   4.719   5.863   8.001
14697SOL    HW256151   4.773   5.721   8.061
14698SOL     OW56152   4.897   7.273   8.983
14698SOL    HW156153   4.817   7.281   8.924
14698SOL    HW256154   4.916   7.362   9.026
14699SOL     OW56155   4.329   5.638   8.292
14699SOL    HW156156   4.269   5.600   8.221
14699SOL    HW256157   4.356   5.565   8.355
14700SOL     OW56158   3.991   7.352   8.636
14700SOL    HW156159   3.965   7.301   8.554
14700SOL    HW256160   3.911   7.361   8.696
14701SOL     OW56161   4.668   6.757   8.253
14701SOL    HW156162   4.702   6.836   8.204
14701SOL    HW256163   4.744   6.712   8.301
14702SOL     OW56164   4.327   6.533   8.332
14702SOL    HW156165   4.341   6.438   8.304
14702SOL    HW256166   4.252   6.538   8.398
14703SOL     OW56167   3.770   6.531   8.519
14703SOL    HW156168   3.829   6.506   8.595
14703SOL    HW256169   3.789   6.471   8.441
14704SOL     OW56170   3.972   5.588   7.879
14704SOL    HW156171   4.010   5.680   7.866
14704SOL    HW256172   3.873   5.596   7.897
14705SOL     OW56173   4.369   6.177   9.076
14705SOL    HW156174   4.320   6.239   9.015
14705SOL    HW256175   4.467   6.177   9.053
14706SOL     OW56176   3.779   6.594   7.643
14706SOL    HW156177   3.795   6.499   7.617
14706SOL    HW256178   3.834   6.654   7.584
14707SOL     OW56179   5.446   5.789   8.252
14707SOL    HW156180   5.417   5.805   8.346
14707SOL    HW256181   5.546   5.782   8.248
14708SOL     OW56182   4.479   6.728   8.456
14708SOL    HW156183   4.426   6.654   8.416
14708SOL    HW256184   4.548   6.759   8.389
14709SOL     OW56185   4.923   6.124   7.689
14709SOL    HW156186   4.950   6.215   7.721
14709SOL    HW256187   4.883   6.132   7.598
14710SOL     OW56188   5.242   6.873   9.058
14710SOL    HW156189   5.200   6.805   9.119
14710SOL    HW256190   5.178   6.947   9.042
14711SOL     OW56191   3.916   6.433   8.732
14711SOL    HW156192   3.948   6.349   8.776
14711SOL    HW256193   3.890   6.500   8.801
14712SOL     OW56194   4.486   7.031   7.414
14712SOL    HW156195   4.442   7.088   7.484
14712SOL    HW256196   4.544   6.964   7.459
14713SOL     OW56197   4.332   7.270   8.472
14713SOL    HW156198   4.327   7.217   8.387
14713SOL    HW256199   4.275   7.225   8.542
14714SOL     OW56200   4.443   6.675   8.117
14714SOL    HW156201   4.524   6.713   8.161
14714SOL    HW256202   4.395   6.617   8.183
14715SOL     OW56203   4.602   7.052   7.910
14715SOL    HW156204   4.670   7.064   7.837
14715SOL    HW256205   4.546   6.972   7.890
14716SOL     OW56206   3.840   6.381   8.297
14716SOL    HW156207   3.926   6.357   8.254
14716SOL    HW256208   3.778   6.420   8.229
14717SOL     OW56209   3.729   6.451   9.187
14717SOL    HW156210   3.629   6.452   9.186
14717SOL    HW256211   3.762   6.413   9.273
14718SOL     OW56212   4.656   7.300   8.855
14718SOL    HW156213   4.606   7.243   8.920
14718SOL    HW256214   4.593   7.363   8.809
14719SOL     OW56215   4.900   6.678   8.391
14719SOL    HW156216   4.920   6.776   8.396
14719SOL    HW256217   4.933   6.634   8.475
14720SOL     OW56218   4.272   5.922   9.124
14720SOL    HW156219   4.320   5.865   9.057
14720SOL    HW256220   4.303   6.016   9.116
14721SOL     OW56221   4.235   6.423   7.764
14721SOL    HW156222   4.205   6.515   7.738
14721SOL    HW256223   4.160   6.375   7.810
14722SOL     OW56224   5.251   6.477   8.362
14722SOL    HW156225   5.295   6.558   8.324
14722SOL    HW256226   5.216   6.498   8.453
14723SOL     OW56227   5.045   5.828   8.780
14723SOL    HW156228   5.115   5.797   8.843
14723SOL    HW256229   4.979   5.755   8.763
14724SOL     OW56230   3.699   5.631   7.889
14724SOL    HW156231   3.604   5.602   7.876
14724SOL    HW256232   3.711   5.724   7.855
14725SOL     OW56233   4.958   5.675   9.140
14725SOL    HW156234   5.002   5.669   9.230
14725SOL    HW256235   4.894   5.752   9.140
14726SOL     OW56236   4.135   7.131   9.002
14726SOL    HW156237   4.077   7.191   9.057
14726SOL    HW256238   4.171   7.182   8.924
14727SOL     OW56239   5.433   6.973   8.894
14727SOL    HW156240   5.409   7.070   8.892
14727SOL    HW256241   5.370   6.924   8.954
14728SOL     OW56242   4.713   5.996   8.460
14728SOL    HW156243   4.785   6.053   8.502
14728SOL    HW256244   4.718   5.903   8.497
14729SOL     OW56245   4.136   7.044   8.074
14729SOL    HW156246   4.140   6.944   8.079
14729SOL    HW256247   4.041   7.074   8.078
14730SOL     OW56248   4.882   7.109   8.617
14730SOL    HW156249   4.803   7.162   8.646
14730SOL    HW256250   4.949   7.170   8.573
14731SOL     OW56251   3.970   7.305   9.150
14731SOL    HW156252   3.997   7.400   9.142
14731SOL    HW256253   3.967   7.279   9.247
14732SOL     OW56254   3.814   6.831   9.000
14732SOL    HW156255   3.800   6.735   8.976
14732SOL    HW256256   3.737   6.885   8.966
14733SOL     OW56257   3.881   7.196   8.425
14733SOL    HW156258   3.863   7.101   8.450
14733SOL    HW256259   3.903   7.201   8.328
14734SOL     OW56260   4.763   5.652   8.222
14734SOL    HW156261   4.847   5.687   8.263
14734SOL    HW256262   4.724   5.582   8.281
14735SOL     OW56263   4.771   6.757   7.779
14735SOL    HW156264   4.860   6.772   7.822
14735SOL    HW256265   4.721   6.688   7.830
14736SOL     OW56266   5.321   6.002   8.119
14736SOL    HW156267   5.343   6.084   8.172
14736SOL    HW256268   5.367   5.923   8.160
14737SOL     OW56269   4.457   6.676   7.644
14737SOL    HW156270   4.521   6.740   7.601
14737SOL    HW256271   4.473   6.585   7.606
14738SOL     OW56272   4.606   5.741   7.452
14738SOL    HW156273   4.700   5.721   7.480
14738SOL    HW256274   4.561   5.797   7.521
14739SOL     OW56275   4.195   6.026   8.119
14739SOL    HW156276   4.258   5.948   8.127
14739SOL    HW256277   4.239   6.098   8.066
14740SOL     OW56278   4.260   6.597   8.809
14740SOL    HW156279   4.353   6.572   8.838
14740SOL    HW256280   4.264   6.679   8.751
14741SOL     OW56281   5.437   6.650   8.685
14741SOL    HW156282   5.449   6.747   8.661
14741SOL    HW256283   5.501   6.595   8.631
14742SOL     OW56284   3.922   6.758   7.479
14742SOL    HW156285   3.905   6.774   7.382
14742SOL    HW256286   3.982   6.830   7.515
14743SOL     OW56287   4.345   7.173   7.596
14743SOL    HW156288   4.301   7.262   7.583
14743SOL    HW256289   4.316   7.134   7.684
14744SOL     OW56290   5.009   6.661   8.836
14744SOL    HW156291   4.946   6.632   8.908
14744SOL    HW256292   5.001   6.760   8.822
14745SOL     OW56293   4.222   7.257   8.766
14745SOL    HW156294   4.289   7.332   8.770
14745SOL    HW256295   4.139   7.289   8.721
14746SOL     OW56296   3.893   6.115   9.110
14746SOL    HW156297   3.892   6.016   9.115
14746SOL    HW256298   3.971   6.151   9.161
14747SOL     OW56299   5.336   7.133   8.446
14747SOL    HW156300   5.410   7.199   8.430
14747SOL    HW256301   5.368   7.063   8.510
14748SOL     OW56302   3.686   6.493   8.082
14748SOL    HW156303   3.713   6.571   8.025
14748SOL    HW256304   3.586   6.490   8.088
14749SOL     OW56305   4.223   6.340   8.919
14749SOL    HW156306   4.134   6.298   8.903
14749SOL    HW256307   4.226   6.429   8.874
14750SOL     OW56308   5.336   6.717   8.230
14750SOL    HW156309   5.308   6.813   8.223
14750SOL    HW256310   5.305   6.668   8.149
14751SOL     OW56311   4.435   6.064   8.390
14751SOL    HW156312   4.531   6.043   8.407
14751SOL    HW256313   4.395   6.108   8.470
14752SOL     OW56314   4.312   6.823   8.653
14752SOL    HW156315   4.219   6.837   8.618
14752SOL    HW256316   4.372   6.798   8.577
14753SOL     OW56317   3.854   6.228   8.542
14753SOL    HW156318   3.868   6.303   8.607
14753SOL    HW256319   3.861   6.263   8.449
14754SOL     OW56320   4.036   6.914   8.866
14754SOL    HW156321   4.074   6.995   8.910
14754SOL    HW256322   3.954   6.884   8.916
14755SOL     OW56323   5.042   6.782   7.864
14755SOL    HW156324   5.134   6.795   7.901
14755SOL    HW256325   5.049   6.750   7.769
14756SOL     OW56326   4.342   5.886   7.852
14756SOL    HW156327   4.243   5.875   7.841
14756SOL    HW256328   4.368   5.864   7.946
14757SOL     OW56329   5.337   5.554   8.145
14757SOL    HW156330   5.320   5.565   8.047
14757SOL    HW256331   5.379   5.637   8.181
14758SOL     OW56332   4.835   6.301   8.807
14758SOL    HW156333   4.934   6.300   8.793
14758SOL    HW256334   4.791   6.353   8.733
14759SOL     OW56335   4.347   6.278   8.222
14759SOL    HW156336   4.370   6.204   8.286
14759SOL    HW256337   4.377   6.252   8.130
14760SOL     OW56338   4.963   6.941   8.407
14760SOL    HW156339   4.917   6.997   8.476
14760SOL    HW256340   4.970   6.993   8.322
14761SOL     OW56341   5.046   5.967   8.117
14761SOL    HW156342   5.029   5.960   8.019
14761SOL    HW256343   5.142   5.986   8.133
14762SOL     OW56344   4.076   5.778   9.245
14762SOL    HW156345   3.991   5.797   9.195
14762SOL    HW256346   4.150   5.834   9.207
14763SOL     OW56347   4.227   6.960   9.604
14763SOL    HW156348   4.161   6.997   9.670
14763SOL    HW256349   4.294   6.903   9.653
14764SOL     OW56350   4.253   5.590   9.348
14764SOL    HW156351   4.346   5.626   9.346
14764SOL    HW256352   4.189   5.660   9.315
14765SOL     OW56353   4.167   6.729   9.898
14765SOL    HW156354   4.141   6.799   9.964
14765SOL    HW256355   4.250   6.757   9.849
14766SOL     OW56356   4.437   6.117   9.726
14766SOL    HW156357   4.449   6.211   9.695
14766SOL    HW256358   4.457   6.055   9.650
14767SOL     OW56359   4.097   6.928   9.368
14767SOL    HW156360   4.156   6.937   9.287
14767SOL    HW256361   4.148   6.957   9.449
14768SOL     OW56362   3.971   6.349   9.677
14768SOL    HW156363   3.949   6.265   9.727
14768SOL    HW256364   3.918   6.425   9.715
14769SOL     OW56365   4.732   5.854   9.686
14769SOL    HW156366   4.709   5.921   9.756
14769SOL    HW256367   4.759   5.768   9.730
14770SOL     OW56368   4.127   6.226   9.226
14770SOL    HW156369   4.127   6.326   9.231
14770SOL    HW256370   4.211   6.195   9.180
14771SOL     OW56371   3.993   6.738   9.684
14771SOL    HW156372   4.048   6.738   9.768
14771SOL    HW256373   4.050   6.711   9.607
14772SOL     OW56374   4.829   5.824   9.427
14772SOL    HW156375   4.906   5.760   9.426
14772SOL    HW256376   4.805   5.845   9.522
14773SOL     OW56377   4.110   5.852   9.733
14773SOL    HW156378   4.134   5.945   9.760
14773SOL    HW256379   4.056   5.854   9.649
14774SOL     OW56380   5.569   7.262   0.274
14774SOL    HW156381   5.585   7.320   0.353
14774SOL    HW256382   5.652   7.257   0.218
14775SOL     OW56383   4.640   6.015   9.888
14775SOL    HW156384   4.705   6.070   9.940
14775SOL    HW256385   4.573   6.075   9.844
14776SOL     OW56386   4.915   6.491   9.443
14776SOL    HW156387   4.941   6.457   9.533
14776SOL    HW256388   4.885   6.415   9.385
14777SOL     OW56389   5.443   6.190   9.612
14777SOL    HW156390   5.387   6.109   9.599
14777SOL    HW256391   5.505   6.176   9.689
14778SOL     OW56392   4.816   7.354   9.342
14778SOL    HW156393   4.812   7.268   9.291
14778SOL    HW256394   4.816   7.335   9.440
14779SOL     OW56395   3.751   6.190   9.784
14779SOL    HW156396   3.726   6.150   9.873
14779SOL    HW256397   3.748   6.290   9.790
14780SOL     OW56398   3.864   6.955   9.536
14780SOL    HW156399   3.901   6.890   9.603
14780SOL    HW256400   3.930   6.967   9.462
14781SOL     OW56401   3.875   7.256   9.679
14781SOL    HW156402   3.840   7.344   9.712
14781SOL    HW256403   3.798   7.196   9.659
14782SOL     OW56404   4.161   6.498   9.249
14782SOL    HW156405   4.139   6.548   9.165
14782SOL    HW256406   4.144   6.557   9.328
14783SOL     OW56407   3.786   6.372   9.447
14783SOL    HW156408   3.866   6.349   9.504
14783SOL    HW256409   3.708   6.317   9.477
14784SOL     OW56410   5.277   6.403   9.643
14784SOL    HW156411   5.332   6.321   9.625
14784SOL    HW256412   5.304   6.475   9.578
14785SOL     OW56413   4.429   6.448   9.299
14785SOL    HW156414   4.457   6.356   9.328
14785SOL    HW256415   4.331   6.448   9.281
14786SOL     OW56416   5.049   5.942   9.647
14786SOL    HW156417   5.002   6.016   9.599
14786SOL    HW256418   5.148   5.953   9.637
14787SOL     OW56419   5.325   5.940   9.652
14787SOL    HW156420   5.419   5.911   9.639
14787SOL    HW256421   5.309   5.960   9.748
14788SOL     OW56422   4.516   5.925   9.532
14788SOL    HW156423   4.448   5.865   9.574
14788SOL    HW256424   4.606   5.906   9.571
14789SOL     OW56425   4.665   6.823   9.352
14789SOL    HW156426   4.746   6.803   9.407
14789SOL    HW256427   4.691   6.826   9.256
14790SOL     OW56428   4.896   6.410   9.940
14790SOL    HW156429   4.897   6.475   0.016
14790SOL    HW256430   4.806   6.414   9.896
14791SOL     OW56431   5.214   6.394   0.047
14791SOL    HW156432   5.124   6.356   0.030
14791SOL    HW256433   5.206   6.491   0.072
14792SOL     OW56434   4.645   6.393   9.837
14792SOL    HW156435   4.597   6.388   9.749
14792SOL    HW256436   4.580   6.416   9.909
14793SOL     OW56437   3.748   5.944   9.637
14793SOL    HW156438   3.828   5.923   9.579
14793SOL    HW256439   3.768   6.025   9.692
14794SOL     OW56440   4.479   6.362   9.617
14794SOL    HW156441   4.385   6.394   9.606
14794SOL    HW256442   4.510   6.319   9.532
14795SOL     OW56443   3.980   7.300   9.427
14795SOL    HW156444   4.076   7.326   9.418
14795SOL    HW256445   3.961   7.274   9.522
14796SOL     OW56446   4.515   5.529   9.660
14796SOL    HW156447   4.479   5.473   9.585
14796SOL    HW256448   4.461   5.613   9.669
14797SOL     OW56449   3.715   6.717   9.707
14797SOL    HW156450   3.807   6.746   9.733
14797SOL    HW256451   3.711   6.701   9.608
14798SOL     OW56452   5.064   5.639   9.403
14798SOL    HW156453   5.088   5.544   9.380
14798SOL    HW256454   5.042   5.644   9.501
14799SOL     OW56455   4.451   5.822   9.953
14799SOL    HW156456   4.463   5.766   0.035
14799SOL    HW256457   4.530   5.882   9.942
14800SOL     OW56458   5.264   5.568   9.674
14800SOL    HW156459   5.286   5.528   9.585
14800SOL    HW256460   5.172   5.607   9.673
14801SOL     OW56461   5.005   6.380   9.680
14801SOL    HW156462   4.972   6.390   9.774
14801SOL    HW256463   5.104   6.389   9.678
14802SOL     OW56464   5.429   6.405   9.878
14802SOL    HW156465   5.377   6.414   9.793
14802SOL    HW256466   5.366   6.392   9.955
14803SOL     OW56467   5.259   5.848   9.389
14803SOL    HW156468   5.281   5.876   9.482
14803SOL    HW256469   5.190   5.775   9.391
14804SOL     OW56470   4.051   6.149   9.478
14804SOL    HW156471   4.081   6.174   9.386
14804SOL    HW256472   4.059   6.228   9.538
14805SOL     OW56473   4.391   6.776   9.740
14805SOL    HW156474   4.428   6.731   9.658
14805SOL    HW256475   4.450   6.756   9.818
14806SOL     OW56476   3.976   5.891   9.491
14806SOL    HW156477   4.006   5.838   9.412
14806SOL    HW256478   4.005   5.986   9.480
14807SOL     OW56479   3.667   6.114   0.031
14807SOL    HW156480   3.674   6.196   0.089
14807SOL    HW256481   3.697   6.034   0.083
14808SOL     OW56482   4.176   6.679   9.466
14808SOL    HW156483   4.275   6.691   9.475
14808SOL    HW256484   4.136   6.763   9.429
14809SOL     OW56485   4.820   6.266   9.297
14809SOL    HW156486   4.769   6.331   9.241
14809SOL    HW256487   4.875   6.207   9.237
14810SOL     OW56488   4.555   6.208   9.399
14810SOL    HW156489   4.650   6.217   9.370
14810SOL    HW256490   4.534   6.112   9.418
14811SOL     OW56491   5.014   5.676   9.666
14811SOL    HW156492   4.945   5.650   9.734
14811SOL    HW256493   5.023   5.776   9.664
14812SOL     OW56494   3.758   5.593   9.380
14812SOL    HW156495   3.847   5.547   9.377
14812SOL    HW256496   3.745   5.634   9.470
14813SOL     OW56497   4.817   5.648   9.852
14813SOL    HW156498   4.823   5.699   9.937
14813SOL    HW256499   4.759   5.567   9.865
14814SOL     OW56500   3.944   5.560   9.647
14814SOL    HW156501   3.989   5.565   9.737
14814SOL    HW256502   3.852   5.600   9.654
14815SOL     OW56503   3.747   6.645   9.445
14815SOL    HW156504   3.773   6.549   9.441
14815SOL    HW256505   3.799   6.697   9.378
14816SOL     OW56506   5.443   5.767   0.014
14816SOL    HW156507   5.408   5.785   0.106
14816SOL    HW256508   5.539   5.741   0.020
14817SOL     OW56509   4.942   6.159   9.528
14817SOL    HW156510   4.959   6.238   9.588
14817SOL    HW256511   4.893   6.190   9.446
14818SOL     OW56512   4.477   7.012   9.276
14818SOL    HW156513   4.456   7.071   9.354
14818SOL    HW256514   4.546   6.945   9.302
14819SOL     OW56515   4.524   6.708   9.973
14819SOL    HW156516   4.578   6.751   0.045
14819SOL    HW256517   4.508   6.612   9.996
14820SOL     OW56518   4.218   6.434   9.587
14820SOL    HW156519   4.201   6.524   9.545
14820SOL    HW256520   4.135   6.404   9.634
14821SOL     OW56521   3.695   5.673   9.636
14821SOL    HW156522   3.606   5.643   9.668
14821SOL    HW256523   3.706   5.771   9.655
14822SOL     OW56524   4.037   7.046   9.780
14822SOL    HW156525   3.974   6.997   9.841
14822SOL    HW256526   3.992   7.129   9.746
14823SOL     OW56527   5.321   5.996   9.923
14823SOL    HW156528   5.365   6.072   9.972
14823SOL    HW256529   5.361   5.910   9.953
14824SOL     OW56530   4.454   6.681   9.470
14824SOL    HW156531   4.528   6.738   9.433
14824SOL    HW256532   4.462   6.588   9.432
14825SOL     OW56533   4.520   5.674   9.344
14825SOL    HW156534   4.589   5.606   9.367
14825SOL    HW256535   4.536   5.757   9.397
14826SOL     OW56536   4.260   6.030   9.911
14826SOL    HW156537   4.309   5.953   9.953
14826SOL    HW256538   4.319   6.073   9.843
14827SOL     OW56539   3.892   6.778   9.260
14827SOL    HW156540   3.864   6.803   9.167
14827SOL    HW256541   3.963   6.841   9.291
14828SOL     OW56542   3.725   6.462   9.807
14828SOL    HW156543   3.727   6.553   9.767
14828SOL    HW256544   3.642   6.452   9.862
14829SOL     OW56545   4.367   5.762   9.699
14829SOL    HW156546   4.269   5.776   9.700
14829SOL    HW256547   4.405   5.777   9.790
14830SOL     OW56548   5.313   5.534   9.942
14830SOL    HW156549   5.283   5.541   9.847
14830SOL    HW256550   5.357   5.620   9.969
14831SOL     OW56551   5.041   6.027   9.915
14831SOL    HW156552   5.021   5.991   9.824
14831SOL    HW256553   5.138   6.017   9.935
14832SOL     OW56554   4.773   8.870   0.768
14832SOL    HW156555   4.868   8.900   0.780
14832SOL    HW256556   4.743   8.894   0.676
14833SOL     OW56557   5.458   8.678   0.585
14833SOL    HW156558   5.450   8.765   0.536
14833SOL    HW256559   5.518   8.616   0.534
14834SOL     OW56560   3.844   7.671   9.969
14834SOL    HW156561   3.752   7.639   9.989
14834SOL    HW256562   3.870   7.642   9.877
14835SOL     OW56563   5.027   8.959   0.828
14835SOL    HW156564   5.041   9.056   0.844
14835SOL    HW256565   5.115   8.914   0.818
14836SOL     OW56566   4.792   7.425   1.221
14836SOL    HW156567   4.751   7.417   1.312
14836SOL    HW256568   4.891   7.419   1.229
14837SOL     OW56569   4.725   8.232   1.815
14837SOL    HW156570   4.760   8.214   1.723
14837SOL    HW256571   4.628   8.209   1.818
14838SOL     OW56572   4.272   8.885   0.449
14838SOL    HW156573   4.224   8.902   0.535
14838SOL    HW256574   4.350   8.825   0.465
14839SOL     OW56575   5.247   8.523   1.570
14839SOL    HW156576   5.155   8.524   1.530
14839SOL    HW256577   5.314   8.504   1.498
14840SOL     OW56578   4.633   8.854   1.521
14840SOL    HW156579   4.547   8.875   1.473
14840SOL    HW256580   4.613   8.798   1.601
14841SOL     OW56581   4.169   8.610   0.726
14841SOL    HW156582   4.120   8.549   0.788
14841SOL    HW256583   4.268   8.597   0.738
14842SOL     OW56584   4.210   8.061   0.632
14842SOL    HW156585   4.261   8.127   0.578
14842SOL    HW256586   4.259   7.974   0.633
14843SOL     OW56587   5.050   7.871   1.853
14843SOL    HW156588   5.140   7.887   1.895
14843SOL    HW256589   5.045   7.777   1.820
14844SOL     OW56590   4.149   8.776   0.212
14844SOL    HW156591   4.147   8.820   0.123
14844SOL    HW256592   4.189   8.839   0.279
14845SOL     OW56593   4.175   7.690   0.998
14845SOL    HW156594   4.265   7.731   1.011
14845SOL    HW256595   4.185   7.601   0.952
14846SOL     OW56596   4.006   8.116   0.457
14846SOL    HW156597   4.069   8.076   0.524
14846SOL    HW256598   3.914   8.120   0.495
14847SOL     OW56599   4.487   9.124   0.604
14847SOL    HW156600   4.559   9.060   0.576
14847SOL    HW256601   4.479   9.197   0.536
14848SOL     OW56602   5.465   8.927   0.444
14848SOL    HW156603   5.561   8.913   0.422
14848SOL    HW256604   5.419   8.974   0.368
14849SOL     OW56605   5.454   7.717   1.066
14849SOL    HW156606   5.507   7.795   1.100
14849SOL    HW256607   5.357   7.736   1.076
14850SOL     OW56608   3.834   8.412   1.590
14850SOL    HW156609   3.926   8.446   1.611
14850SOL    HW256610   3.789   8.382   1.674
14851SOL     OW56611   4.189   8.110   0.035
14851SOL    HW156612   4.188   8.207   0.059
14851SOL    HW256613   4.264   8.092   9.972
14852SOL     OW56614   4.362   9.026   0.821
14852SOL    HW156615   4.410   9.067   0.743
14852SOL    HW256616   4.284   8.973   0.788
14853SOL     OW56617   4.643   7.972   1.626
14853SOL    HW156618   4.670   7.884   1.665
14853SOL    HW256619   4.724   8.023   1.597
14854SOL     OW56620   5.277   8.852   0.851
14854SOL    HW156621   5.294   8.884   0.944
14854SOL    HW256622   5.348   8.888   0.790
14855SOL     OW56623   4.021   8.635   0.491
14855SOL    HW156624   4.064   8.629   0.582
14855SOL    HW256625   4.080   8.591   0.423
14856SOL     OW56626   4.942   7.668   0.028
14856SOL    HW156627   4.995   7.609   0.089
14856SOL    HW256628   4.994   7.752   0.010
14857SOL     OW56629   3.953   7.872   1.233
14857SOL    HW156630   3.974   7.775   1.244
14857SOL    HW256631   3.957   7.896   1.136
14858SOL     OW56632   4.034   7.732   0.426
14858SOL    HW156633   3.991   7.767   0.509
14858SOL    HW256634   3.989   7.771   0.346
14859SOL     OW56635   5.249   9.122   1.359
14859SOL    HW156636   5.180   9.134   1.287
14859SOL    HW256637   5.340   9.121   1.317
14860SOL     OW56638   5.522   7.971   1.166
14860SOL    HW156639   5.612   8.014   1.170
14860SOL    HW256640   5.482   7.967   1.258
14861SOL     OW56641   5.502   9.132   1.218
14861SOL    HW156642   5.539   9.179   1.298
14861SOL    HW256643   5.578   9.108   1.156
14862SOL     OW56644   4.910   8.252   0.177
14862SOL    HW156645   4.895   8.246   0.275
14862SOL    HW256646   4.866   8.174   0.132
14863SOL     OW56647   4.708   7.754   1.790
14863SOL    HW156648   4.733   7.824   1.857
14863SOL    HW256649   4.641   7.692   1.830
14864SOL     OW56650   5.447   8.001   0.311
14864SOL    HW156651   5.369   7.941   0.325
14864SOL    HW256652   5.493   8.017   0.398
14865SOL     OW56653   4.724   9.388   0.328
14865SOL    HW156654   4.795   9.413   0.262
14865SOL    HW256655   4.760   9.398   0.420
14866SOL     OW56656   4.430   7.458   1.704
14866SOL    HW156657   4.460   7.368   1.674
14866SOL    HW256658   4.481   7.485   1.786
14867SOL     OW56659   5.362   8.043   0.951
14867SOL    HW156660   5.352   8.142   0.943
14867SOL    HW256661   5.424   8.021   1.025
14868SOL     OW56662   5.116   7.318   0.842
14868SOL    HW156663   5.055   7.398   0.843
14868SOL    HW256664   5.202   7.343   0.798
14869SOL     OW56665   3.767   8.112   0.588
14869SOL    HW156666   3.767   8.055   0.671
14869SOL    HW256667   3.732   8.203   0.611
14870SOL     OW56668   3.921   7.571   0.816
14870SOL    HW156669   3.980   7.599   0.892
14870SOL    HW256670   3.955   7.486   0.776
14871SOL     OW56671   4.023   7.605   1.231
14871SOL    HW156672   4.017   7.505   1.242
14871SOL    HW256673   4.081   7.627   1.153
14872SOL     OW56674   3.911   8.885   0.419
14872SOL    HW156675   3.965   8.802   0.432
14872SOL    HW256676   3.966   8.953   0.370
14873SOL     OW56677   5.177   8.725   1.267
14873SOL    HW156678   5.125   8.776   1.199
14873SOL    HW256679   5.114   8.680   1.330
14874SOL     OW56680   3.894   8.981   0.677
14874SOL    HW156681   3.798   8.998   0.700
14874SOL    HW256682   3.900   8.947   0.583
14875SOL     OW56683   5.442   8.763   1.287
14875SOL    HW156684   5.467   8.807   1.373
14875SOL    HW256685   5.343   8.747   1.286
14876SOL     OW56686   4.198   8.372   0.095
14876SOL    HW156687   4.138   8.421   0.031
14876SOL    HW256688   4.201   8.421   0.182
14877SOL     OW56689   3.732   8.189   0.179
14877SOL    HW156690   3.822   8.145   0.181
14877SOL    HW256691   3.676   8.154   0.254
14878SOL     OW56692   4.541   9.258   1.003
14878SOL    HW156693   4.578   9.167   0.985
14878SOL    HW256694   4.478   9.253   1.080
14879SOL     OW56695   4.433   8.343   9.958
14879SOL    HW156696   4.439   8.249   9.923
14879SOL    HW256697   4.353   8.351   0.017
14880SOL     OW56698   3.862   8.031   1.435
14880SOL    HW156699   3.888   7.970   1.360
14880SOL    HW256700   3.879   7.985   1.522
14881SOL     OW56701   3.846   7.610   1.464
14881SOL    HW156702   3.910   7.615   1.388
14881SOL    HW256703   3.752   7.615   1.429
14882SOL     OW56704   5.317   7.766   0.484
14882SOL    HW156705   5.415   7.751   0.472
14882SOL    HW256706   5.300   7.803   0.575
14883SOL     OW56707   4.614   9.000   0.950
14883SOL    HW156708   4.678   8.954   0.888
14883SOL    HW256709   4.521   8.992   0.914
14884SOL     OW56710   5.461   9.006   0.709
14884SOL    HW156711   5.413   9.091   0.730
14884SOL    HW256712   5.451   8.985   0.612
14885SOL     OW56713   4.027   8.443   0.893
14885SOL    HW156714   3.932   8.473   0.884
14885SOL    HW256715   4.049   8.432   0.989
14886SOL     OW56716   4.868   8.782   1.392
14886SOL    HW156717   4.941   8.845   1.417
14886SOL    HW256718   4.783   8.811   1.436
14887SOL     OW56719   3.718   7.757   0.427
14887SOL    HW156720   3.769   7.775   0.342
14887SOL    HW256721   3.778   7.773   0.505
14888SOL     OW56722   5.347   9.104   0.242
14888SOL    HW156723   5.443   9.126   0.225
14888SOL    HW256724   5.291   9.130   0.164
14889SOL     OW56725   3.714   9.256   1.383
14889SOL    HW156726   3.682   9.350   1.392
14889SOL    HW256727   3.716   9.212   1.473
14890SOL     OW56728   4.497   8.262   0.379
14890SOL    HW156729   4.400   8.261   0.402
14890SOL    HW256730   4.525   8.172   0.346
14891SOL     OW56731   3.998   7.916   0.963
14891SOL    HW156732   4.034   8.000   0.922
14891SOL    HW256733   4.069   7.845   0.962
14892SOL     OW56734   4.035   9.110   0.303
14892SOL    HW156735   4.132   9.111   0.283
14892SOL    HW256736   4.014   9.183   0.369
14893SOL     OW56737   5.049   9.117   1.156
14893SOL    HW156738   5.072   9.162   1.069
14893SOL    HW256739   5.050   9.018   1.144
14894SOL     OW56740   3.753   8.553   0.949
14894SOL    HW156741   3.669   8.552   0.895
14894SOL    HW256742   3.745   8.488   1.025
14895SOL     OW56743   3.737   8.566   0.488
14895SOL    HW156744   3.831   8.601   0.498
14895SOL    HW256745   3.724   8.531   0.396
14896SOL     OW56746   4.955   7.537   0.888
14896SOL    HW156747   4.986   7.630   0.868
14896SOL    HW256748   4.943   7.526   0.986
14897SOL     OW56749   5.082   7.492   0.188
14897SOL    HW156750   5.172   7.448   0.192
14897SOL    HW256751   5.012   7.422   0.176
14898SOL     OW56752   5.297   7.485   0.458
14898SOL    HW156753   5.311   7.453   0.364
14898SOL    HW256754   5.293   7.585   0.459
14899SOL     OW56755   3.787   8.779   1.101
14899SOL    HW156756   3.770   8.703   1.038
14899SOL    HW256757   3.714   8.781   1.170
14900SOL     OW56758   5.039   7.796   0.844
14900SOL    HW156759   5.128   7.808   0.801
14900SOL    HW256760   4.973   7.859   0.803
14901SOL     OW56761   5.208   7.835   1.060
14901SOL    HW156762   5.252   7.919   1.027
14901SOL    HW256763   5.131   7.812   0.999
14902SOL     OW56764   5.308   7.910   1.954
14902SOL    HW156765   5.370   7.866   1.889
14902SOL    HW256766   5.361   7.961   2.022
14903SOL     OW56767   5.237   7.723   0.228
14903SOL    HW156768   5.249   7.744   0.325
14903SOL    HW256769   5.172   7.648   0.218
14904SOL     OW56770   4.402   8.917   1.392
14904SOL    HW156771   4.340   8.994   1.401
14904SOL    HW256772   4.380   8.865   1.309
14905SOL     OW56773   3.902   7.564   1.727
14905SOL    HW156774   3.877   7.576   1.631
14905SOL    HW256775   3.818   7.562   1.782
14906SOL     OW56776   3.757   9.120   1.618
14906SOL    HW156777   3.842   9.082   1.579
14906SOL    HW256778   3.780   9.187   1.688
14907SOL     OW56779   3.877   7.780   0.646
14907SOL    HW156780   3.835   7.850   0.703
14907SOL    HW256781   3.897   7.699   0.702
14908SOL     OW56782   5.079   8.939   1.489
14908SOL    HW156783   5.028   8.997   1.552
14908SOL    HW256784   5.144   8.996   1.438
14909SOL     OW56785   3.974   8.059   0.192
14909SOL    HW156786   4.053   8.072   0.133
14909SOL    HW256787   3.998   8.083   0.286
14910SOL     OW56788   4.046   9.215   0.713
14910SOL    HW156789   4.000   9.126   0.713
14910SOL    HW256790   4.035   9.258   0.623
14911SOL     OW56791   4.046   8.714   1.169
14911SOL    HW156792   4.052   8.764   1.255
14911SOL    HW256793   3.957   8.733   1.126
14912SOL     OW56794   5.044   8.932   1.855
14912SOL    HW156795   5.029   8.835   1.840
14912SOL    HW256796   4.998   8.985   1.784
14913SOL     OW56797   4.479   8.713   0.507
14913SOL    HW156798   4.492   8.643   0.438
14913SOL    HW256799   4.466   8.670   0.597
14914SOL     OW56800   4.052   8.163   0.835
14914SOL    HW156801   4.066   8.261   0.851
14914SOL    HW256802   4.111   8.133   0.761
14915SOL     OW56803   3.869   7.813   0.204
14915SOL    HW156804   3.874   7.762   0.118
14915SOL    HW256805   3.911   7.903   0.192
14916SOL     OW56806   3.762   7.956   0.816
14916SOL    HW156807   3.681   7.994   0.860
14916SOL    HW256808   3.834   7.943   0.885
14917SOL     OW56809   4.229   8.538   0.314
14917SOL    HW156810   4.329   8.537   0.317
14917SOL    HW256811   4.197   8.624   0.274
14918SOL     OW56812   4.834   8.052   9.999
14918SOL    HW156813   4.844   8.131   9.939
14918SOL    HW256814   4.910   7.988   9.983
14919SOL     OW56815   3.847   7.489   0.195
14919SOL    HW156816   3.903   7.531   0.124
14919SOL    HW256817   3.901   7.479   0.279
14920SOL     OW56818   4.050   8.429   1.162
14920SOL    HW156819   3.994   8.381   1.231
14920SOL    HW256820   4.047   8.527   1.180
14921SOL     OW56821   4.834   8.495   1.706
14921SOL    HW156822   4.790   8.423   1.759
14921SOL    HW256823   4.893   8.550   1.766
14922SOL     OW56824   4.703   7.446   0.793
14922SOL    HW156825   4.800   7.469   0.802
14922SOL    HW256826   4.652   7.484   0.871
14923SOL     OW56827   4.933   9.092   1.660
14923SOL    HW156828   4.858   9.102   1.594
14923SOL    HW256829   4.956   9.181   1.697
14924SOL     OW56830   4.213   7.451   0.882
14924SOL    HW156831   4.166   7.402   0.809
14924SOL    HW256832   4.295   7.400   0.908
14925SOL     OW56833   3.941   9.224   1.236
14925SOL    HW156834   3.917   9.162   1.161
14925SOL    HW256835   3.863   9.234   1.298
14926SOL     OW56836   4.643   8.676   0.913
14926SOL    HW156837   4.691   8.741   0.854
14926SOL    HW256838   4.689   8.672   1.002
14927SOL     OW56839   3.693   8.388   1.161
14927SOL    HW156840   3.757   8.331   1.212
14927SOL    HW256841   3.630   8.329   1.110
14928SOL     OW56842   3.954   7.474   0.449
14928SOL    HW156843   3.997   7.564   0.447
14928SOL    HW256844   3.863   7.482   0.489
14929SOL     OW56845   4.465   8.124   1.761
14929SOL    HW156846   4.402   8.167   1.697
14929SOL    HW256847   4.525   8.060   1.712
14930SOL     OW56848   3.734   8.463   0.231
14930SOL    HW156849   3.744   8.368   0.201
14930SOL    HW256850   3.797   8.522   0.180
14931SOL     OW56851   5.459   7.628   0.810
14931SOL    HW156852   5.464   7.645   0.908
14931SOL    HW256853   5.546   7.652   0.767
14932SOL     OW56854   5.262   8.798   1.642
14932SOL    HW156855   5.255   8.699   1.633
14932SOL    HW256856   5.189   8.842   1.590
14933SOL     OW56857   3.879   8.290   1.346
14933SOL    HW156858   3.875   8.194   1.373
14933SOL    HW256859   3.861   8.347   1.426
14934SOL     OW56860   4.317   9.060   1.093
14934SOL    HW156861   4.324   9.066   0.994
14934SOL    HW256862   4.322   8.965   1.121
14935SOL     OW56863   4.448   8.573   0.749
14935SOL    HW156864   4.511   8.618   0.813
14935SOL    HW256865   4.467   8.475   0.747
14936SOL     OW56866   4.660   8.921   0.520
14936SOL    HW156867   4.701   8.938   0.430
14936SOL    HW256868   4.594   8.847   0.513
14937SOL     OW56869   3.788   8.250   0.881
14937SOL    HW156870   3.877   8.216   0.850
14937SOL    HW256871   3.742   8.297   0.805
14938SOL     OW56872   3.719   8.329   1.813
14938SOL    HW156873   3.620   8.315   1.813
14938SOL    HW256874   3.759   8.284   1.893
14939SOL     OW56875   4.752   9.094   1.453
14939SOL    HW156876   4.746   9.091   1.353
14939SOL    HW256877   4.700   9.018   1.492
14940SOL     OW56878   4.807   8.671   1.146
14940SOL    HW156879   4.814   8.718   1.234
14940SOL    HW256880   4.840   8.577   1.155
14941SOL     OW56881   4.191   7.861   1.784
14941SOL    HW156882   4.262   7.831   1.721
14941SOL    HW256883   4.228   7.928   1.848
14942SOL     OW56884   4.230   8.281   0.437
14942SOL    HW156885   4.218   8.376   0.408
14942SOL    HW256886   4.142   8.233   0.434
14943SOL     OW56887   5.356   8.325   0.953
14943SOL    HW156888   5.343   8.403   0.892
14943SOL    HW256889   5.385   8.357   1.042
14944SOL     OW56890   3.672   7.500   0.501
14944SOL    HW156891   3.575   7.482   0.513
14944SOL    HW256892   3.685   7.595   0.473
14945SOL     OW56893   4.935   7.590   1.781
14945SOL    HW156894   4.953   7.591   1.879
14945SOL    HW256895   4.853   7.645   1.762
14946SOL     OW56896   3.980   9.013   1.512
14946SOL    HW156897   4.010   8.931   1.561
14946SOL    HW256898   4.053   9.044   1.451
14947SOL     OW56899   5.501   8.866   1.534
14947SOL    HW156900   5.536   8.954   1.566
14947SOL    HW256901   5.414   8.846   1.579
14948SOL     OW56902   4.153   8.883   0.705
14948SOL    HW156903   4.156   8.785   0.720
14948SOL    HW256904   4.058   8.915   0.707
14949SOL     OW56905   4.759   9.066   1.183
14949SOL    HW156906   4.704   9.035   1.106
14949SOL    HW256907   4.853   9.082   1.153
14950SOL     OW56908   3.806   8.696   1.673
14950SOL    HW156909   3.785   8.605   1.637
14950SOL    HW256910   3.747   8.764   1.631
14951SOL     OW56911   3.848   9.041   1.043
14951SOL    HW156912   3.829   8.945   1.065
14951SOL    HW256913   3.884   9.048   0.950
14952SOL     OW56914   4.598   7.534   1.042
14952SOL    HW156915   4.670   7.509   1.107
14952SOL    HW256916   4.528   7.463   1.041
14953SOL     OW56917   5.296   7.845   0.753
14953SOL    HW156918   5.325   7.923   0.808
14953SOL    HW256919   5.352   7.765   0.775
14954SOL     OW56920   4.506   8.522   0.309
14954SOL    HW156921   4.578   8.540   0.243
14954SOL    HW256922   4.510   8.427   0.338
14955SOL     OW56923   5.437   8.495   1.363
14955SOL    HW156924   5.446   8.590   1.334
14955SOL    HW256925   5.484   8.435   1.298
14956SOL     OW56926   3.903   8.667   0.131
14956SOL    HW156927   3.825   8.729   0.137
14956SOL    HW256928   3.984   8.710   0.170
14957SOL     OW56929   4.306   9.105   0.285
14957SOL    HW156930   4.366   9.179   0.315
14957SOL    HW256931   4.309   9.031   0.352
14958SOL     OW56932   4.986   8.553   1.481
14958SOL    HW156933   4.937   8.515   1.559
14958SOL    HW256934   4.938   8.634   1.448
14959SOL     OW56935   4.170   9.098   1.322
14959SOL    HW156936   4.230   9.093   1.243
14959SOL    HW256937   4.091   9.155   1.301
14960SOL     OW56938   3.921   7.887   1.676
14960SOL    HW156939   3.902   7.789   1.665
14960SOL    HW256940   4.012   7.898   1.716
14961SOL     OW56941   5.344   8.945   1.094
14961SOL    HW156942   5.390   9.029   1.123
14961SOL    HW256943   5.370   8.870   1.154
14962SOL     OW56944   3.667   8.355   0.653
14962SOL    HW156945   3.695   8.434   0.598
14962SOL    HW256946   3.567   8.353   0.660
14963SOL     OW56947   5.356   8.582   0.818
14963SOL    HW156948   5.305   8.661   0.851
14963SOL    HW256949   5.391   8.600   0.725
14964SOL     OW56950   4.439   7.764   1.016
14964SOL    HW156951   4.493   7.680   1.020
14964SOL    HW256952   4.499   7.843   1.031
14965SOL     OW56953   4.313   8.795   1.152
14965SOL    HW156954   4.221   8.757   1.144
14965SOL    HW256955   4.377   8.738   1.101
14966SOL     OW56956   3.784   8.105   1.107
14966SOL    HW156957   3.873   8.113   1.153
14966SOL    HW256958   3.783   8.162   1.026
14967SOL     OW56959   5.346   9.052   1.805
14967SOL    HW156960   5.303   8.963   1.791
14967SOL    HW256961   5.307   9.118   1.741
14968SOL     OW56962   5.343   7.402   0.709
14968SOL    HW156963   5.316   7.428   0.616
14968SOL    HW256964   5.383   7.481   0.756
14969SOL     OW56965   4.839   8.168   1.571
14969SOL    HW156966   4.929   8.193   1.609
14969SOL    HW256967   4.829   8.209   1.481
14970SOL     OW56968   5.008   8.853   1.084
14970SOL    HW156969   4.928   8.793   1.095
14970SOL    HW256970   5.015   8.880   0.988
14971SOL     OW56971   4.793   8.818   2.597
14971SOL    HW156972   4.889   8.846   2.608
14971SOL    HW256973   4.763   8.837   2.504
14972SOL     OW56974   5.348   8.664   2.414
14972SOL    HW156975   5.349   8.719   2.498
14972SOL    HW256976   5.441   8.630   2.396
14973SOL     OW56977   4.095   7.638   1.908
14973SOL    HW156978   4.030   7.599   1.843
14973SOL    HW256979   4.140   7.717   1.866
14974SOL     OW56980   5.053   8.914   2.666
14974SOL    HW156981   5.060   9.012   2.686
14974SOL    HW256982   5.144   8.877   2.648
14975SOL     OW56983   4.683   8.197   3.588
14975SOL    HW156984   4.671   8.142   3.506
14975SOL    HW256985   4.598   8.244   3.610
14976SOL     OW56986   4.245   8.821   2.285
14976SOL    HW156987   4.216   8.866   2.369
14976SOL    HW256988   4.333   8.776   2.300
14977SOL     OW56989   4.294   7.464   2.020
14977SOL    HW156990   4.376   7.497   1.976
14977SOL    HW256991   4.215   7.517   1.989
14978SOL     OW56992   5.270   8.340   3.305
14978SOL    HW156993   5.188   8.384   3.342
14978SOL    HW256994   5.335   8.410   3.274
14979SOL     OW56995   5.050   8.444   3.098
14979SOL    HW156996   5.028   8.445   3.196
14979SOL    HW256997   5.109   8.522   3.076
14980SOL     OW56998   4.682   8.749   3.310
14980SOL    HW156999   4.600   8.806   3.301
14980SOL    HW257000   4.674   8.670   3.249
14981SOL     OW57001   4.159   8.598   2.545
14981SOL    HW157002   4.107   8.551   2.616
14981SOL    HW257003   4.255   8.567   2.549
14982SOL     OW57004   4.396   8.014   2.424
14982SOL    HW157005   4.436   8.083   2.364
14982SOL    HW257006   4.398   7.925   2.379
14983SOL     OW57007   4.074   8.846   2.071
14983SOL    HW157008   4.062   8.945   2.057
14983SOL    HW257009   4.147   8.831   2.138
14984SOL     OW57010   4.233   7.691   2.877
14984SOL    HW157011   4.296   7.769   2.878
14984SOL    HW257012   4.277   7.613   2.831
14985SOL     OW57013   4.035   8.149   2.335
14985SOL    HW157014   4.071   8.188   2.420
14985SOL    HW257015   3.939   8.124   2.348
14986SOL     OW57016   4.489   9.083   2.426
14986SOL    HW157017   4.563   9.029   2.385
14986SOL    HW257018   4.458   9.152   2.360
14987SOL     OW57019   5.482   8.991   2.260
14987SOL    HW157020   5.570   8.948   2.238
14987SOL    HW257021   5.451   9.046   2.182
14988SOL     OW57022   4.774   7.741   2.213
14988SOL    HW157023   4.835   7.819   2.226
14988SOL    HW257024   4.775   7.684   2.296
14989SOL     OW57025   3.845   8.377   3.446
14989SOL    HW157026   3.938   8.411   3.463
14989SOL    HW257027   3.804   8.347   3.532
14990SOL     OW57028   4.282   8.054   1.965
14990SOL    HW157029   4.280   8.117   2.043
14990SOL    HW257030   4.362   8.075   1.909
14991SOL     OW57031   4.376   8.989   2.655
14991SOL    HW157032   4.421   9.029   2.575
14991SOL    HW257033   4.291   8.945   2.626
14992SOL     OW57034   4.666   8.017   3.370
14992SOL    HW157035   4.669   7.918   3.388
14992SOL    HW257036   4.738   8.041   3.305
14993SOL     OW57037   5.326   8.814   2.658
14993SOL    HW157038   5.327   8.842   2.754
14993SOL    HW257039   5.377   8.881   2.604
14994SOL     OW57040   3.977   8.675   2.344
14994SOL    HW157041   4.043   8.644   2.413
14994SOL    HW257042   4.022   8.677   2.254
14995SOL     OW57043   4.965   7.626   2.049
14995SOL    HW157044   5.046   7.659   2.098
14995SOL    HW257045   4.882   7.656   2.097
14996SOL     OW57046   4.070   7.953   3.028
14996SOL    HW157047   4.066   7.854   3.044
14996SOL    HW257048   3.978   7.992   3.035
14997SOL     OW57049   5.104   8.173   3.118
14997SOL    HW157050   5.087   8.271   3.107
14997SOL    HW257051   5.187   8.159   3.172
14998SOL     OW57052   4.070   7.692   2.297
14998SOL    HW157053   4.021   7.708   2.383
14998SOL    HW257054   4.017   7.730   2.221
14999SOL     OW57055   5.229   9.136   3.172
14999SOL    HW157056   5.153   9.139   3.108
14999SOL    HW257057   5.315   9.128   3.122
15000SOL     OW57058   5.564   7.937   3.066
15000SOL    HW157059   5.641   7.988   3.029
15000SOL    HW257060   5.508   7.998   3.123
15001SOL     OW57061   5.491   9.124   3.031
15001SOL    HW157062   5.527   9.163   3.115
15001SOL    HW257063   5.566   9.104   2.968
15002SOL     OW57064   4.605   7.776   2.530
15002SOL    HW157065   4.663   7.702   2.496
15002SOL    HW257066   4.663   7.856   2.548
15003SOL     OW57067   4.875   8.366   2.011
15003SOL    HW157068   4.896   8.310   2.091
15003SOL    HW257069   4.812   8.317   1.951
15004SOL     OW57070   5.520   8.021   2.124
15004SOL    HW157071   5.597   7.960   2.105
15004SOL    HW257072   5.512   8.036   2.222
15005SOL     OW57073   4.504   7.470   3.556
15005SOL    HW157074   4.531   7.376   3.533
15005SOL    HW257075   4.500   7.480   3.656
15006SOL     OW57076   5.434   7.986   2.814
15006SOL    HW157077   5.416   8.084   2.817
15006SOL    HW257078   5.471   7.956   2.902
15007SOL     OW57079   4.767   8.677   3.568
15007SOL    HW157080   4.802   8.583   3.562
15007SOL    HW257081   4.726   8.702   3.480
15008SOL     OW57082   4.435   8.529   3.571
15008SOL    HW157083   4.374   8.607   3.584
15008SOL    HW257084   4.435   8.472   3.653
15009SOL     OW57085   5.483   7.549   3.595
15009SOL    HW157086   5.510   7.509   3.682
15009SOL    HW257087   5.390   7.521   3.572
15010SOL     OW57088   3.776   8.096   2.419
15010SOL    HW157089   3.777   8.028   2.493
15010SOL    HW257090   3.745   8.184   2.455
15011SOL     OW57091   4.016   7.590   2.704
15011SOL    HW157092   4.085   7.631   2.763
15011SOL    HW257093   4.047   7.500   2.673
15012SOL     OW57094   4.051   7.654   3.075
15012SOL    HW157095   4.035   7.556   3.089
15012SOL    HW257096   4.120   7.666   3.003
15013SOL     OW57097   4.681   8.211   2.787
15013SOL    HW157098   4.728   8.272   2.723
15013SOL    HW257099   4.601   8.171   2.742
15014SOL     OW57100   3.893   8.937   2.301
15014SOL    HW157101   3.915   8.840   2.315
15014SOL    HW257102   3.948   8.973   2.225
15015SOL     OW57103   5.146   8.713   3.099
15015SOL    HW157104   5.099   8.745   3.016
15015SOL    HW257105   5.085   8.722   3.177
15016SOL     OW57106   3.889   8.997   2.574
15016SOL    HW157107   3.792   9.012   2.594
15016SOL    HW257108   3.901   8.985   2.475
15017SOL     OW57109   5.410   8.778   3.135
15017SOL    HW157110   5.429   8.820   3.224
15017SOL    HW257111   5.313   8.754   3.130
15018SOL     OW57112   4.640   8.536   3.147
15018SOL    HW157113   4.687   8.452   3.119
15018SOL    HW257114   4.574   8.562   3.076
15019SOL     OW57115   3.816   8.218   2.043
15019SOL    HW157116   3.888   8.148   2.041
15019SOL    HW257117   3.739   8.185   2.098
15020SOL     OW57118   5.239   8.247   2.247
15020SOL    HW157119   5.307   8.209   2.310
15020SOL    HW257120   5.286   8.299   2.176
15021SOL     OW57121   4.572   9.218   2.814
15021SOL    HW157122   4.616   9.133   2.787
15021SOL    HW257123   4.499   9.198   2.879
15022SOL     OW57124   5.142   7.769   2.226
15022SOL    HW157125   5.080   7.844   2.201
15022SOL    HW257126   5.230   7.807   2.256
15023SOL     OW57127   3.955   8.011   3.347
15023SOL    HW157128   3.934   7.921   3.309
15023SOL    HW257129   3.924   8.016   3.442
15024SOL     OW57130   3.887   7.751   3.274
15024SOL    HW157131   3.954   7.718   3.208
15024SOL    HW257132   3.797   7.715   3.250
15025SOL     OW57133   4.690   8.283   3.052
15025SOL    HW157134   4.690   8.270   2.953
15025SOL    HW257135   4.609   8.240   3.092
15026SOL     OW57136   5.367   7.829   2.389
15026SOL    HW157137   5.420   7.913   2.377
15026SOL    HW257138   5.355   7.811   2.486
15027SOL     OW57139   4.632   8.953   2.767
15027SOL    HW157140   4.691   8.904   2.704
15027SOL    HW257141   4.538   8.951   2.733
15028SOL     OW57142   4.522   7.761   2.121
15028SOL    HW157143   4.452   7.753   2.193
15028SOL    HW257144   4.613   7.751   2.161
15029SOL     OW57145   5.453   9.011   2.526
15029SOL    HW157146   5.408   9.096   2.552
15029SOL    HW257147   5.458   9.005   2.426
15030SOL     OW57148   4.858   8.282   2.466
15030SOL    HW157149   4.909   8.292   2.551
15030SOL    HW257150   4.760   8.282   2.485
15031SOL     OW57151   4.537   9.012   3.471
15031SOL    HW157152   4.488   8.963   3.399
15031SOL    HW257153   4.543   8.953   3.552
15032SOL     OW57154   4.995   8.324   2.697
15032SOL    HW157155   5.016   8.245   2.754
15032SOL    HW257156   4.965   8.400   2.754
15033SOL     OW57157   4.013   8.474   2.740
15033SOL    HW157158   3.923   8.518   2.737
15033SOL    HW257159   4.035   8.451   2.834
15034SOL     OW57160   4.591   8.307   2.497
15034SOL    HW157161   4.558   8.270   2.411
15034SOL    HW257162   4.534   8.385   2.524
15035SOL     OW57163   4.966   8.742   3.306
15035SOL    HW157164   5.008   8.829   3.333
15035SOL    HW257165   4.866   8.753   3.305
15036SOL     OW57166   3.732   7.700   2.296
15036SOL    HW157167   3.781   7.730   2.215
15036SOL    HW257168   3.790   7.710   2.376
15037SOL     OW57169   5.393   9.165   2.061
15037SOL    HW157170   5.478   9.216   2.047
15037SOL    HW257171   5.368   9.120   1.975
15038SOL     OW57172   4.492   8.166   3.209
15038SOL    HW157173   4.493   8.250   3.264
15038SOL    HW257174   4.539   8.093   3.258
15039SOL     OW57175   3.757   9.223   3.237
15039SOL    HW157176   3.703   9.307   3.233
15039SOL    HW257177   3.744   9.179   3.326
15040SOL     OW57178   4.500   8.212   2.252
15040SOL    HW157179   4.406   8.232   2.222
15040SOL    HW257180   4.543   8.149   2.187
15041SOL     OW57181   4.025   8.032   2.758
15041SOL    HW157182   4.085   7.983   2.695
15041SOL    HW257183   4.051   8.010   2.852
15042SOL     OW57184   4.035   9.124   2.107
15042SOL    HW157185   4.104   9.173   2.054
15042SOL    HW257186   4.031   9.163   2.200
15043SOL     OW57187   5.012   9.139   2.999
15043SOL    HW157188   5.046   9.155   2.907
15043SOL    HW257189   4.934   9.075   2.996
15044SOL     OW57190   3.755   8.585   2.791
15044SOL    HW157191   3.669   8.584   2.741
15044SOL    HW257192   3.752   8.518   2.865
15045SOL     OW57193   4.432   7.481   2.263
15045SOL    HW157194   4.378   7.461   2.182
15045SOL    HW257195   4.404   7.569   2.301
15046SOL     OW57196   3.725   8.553   2.360
15046SOL    HW157197   3.809   8.605   2.376
15046SOL    HW257198   3.723   8.522   2.265
15047SOL     OW57199   5.008   7.525   2.512
15047SOL    HW157200   5.029   7.622   2.520
15047SOL    HW257201   5.090   7.471   2.532
15048SOL     OW57202   5.230   7.443   3.513
15048SOL    HW157203   5.221   7.412   3.419
15048SOL    HW257204   5.140   7.470   3.548
15049SOL     OW57205   4.359   7.687   2.591
15049SOL    HW157206   4.353   7.598   2.636
15049SOL    HW257207   4.455   7.715   2.586
15050SOL     OW57208   5.063   8.116   2.856
15050SOL    HW157209   5.044   8.020   2.833
15050SOL    HW257210   5.074   8.126   2.954
15051SOL     OW57211   5.356   7.559   2.329
15051SOL    HW157212   5.281   7.551   2.263
15051SOL    HW257213   5.374   7.655   2.349
15052SOL     OW57214   4.287   8.772   3.606
15052SOL    HW157215   4.245   8.835   3.541
15052SOL    HW257216   4.374   8.810   3.638
15053SOL     OW57217   4.097   8.482   3.481
15053SOL    HW157218   4.159   8.445   3.412
15053SOL    HW257219   4.075   8.577   3.459
15054SOL     OW57220   3.813   8.780   2.977
15054SOL    HW157221   3.800   8.719   2.899
15054SOL    HW257222   3.731   8.780   3.034
15055SOL     OW57223   4.970   8.223   2.227
15055SOL    HW157224   4.927   8.244   2.315
15055SOL    HW257225   5.069   8.237   2.234
15056SOL     OW57226   5.223   8.372   2.536
15056SOL    HW157227   5.192   8.413   2.450
15056SOL    HW257228   5.144   8.345   2.591
15057SOL     OW57229   5.443   8.148   3.208
15057SOL    HW157230   5.378   8.210   3.251
15057SOL    HW257231   5.536   8.181   3.223
15058SOL     OW57232   4.420   8.877   3.264
15058SOL    HW157233   4.360   8.953   3.237
15058SOL    HW257234   4.385   8.792   3.224
15059SOL     OW57235   3.864   7.711   3.552
15059SOL    HW157236   3.869   7.719   3.453
15059SOL    HW257237   3.771   7.689   3.579
15060SOL     OW57238   3.730   9.078   3.474
15060SOL    HW157239   3.818   9.090   3.520
15060SOL    HW257240   3.657   9.083   3.541
15061SOL     OW57241   3.892   7.734   2.512
15061SOL    HW157242   3.850   7.813   2.557
15061SOL    HW257243   3.938   7.678   2.580
15062SOL     OW57244   5.089   8.980   3.362
15062SOL    HW157245   5.019   9.038   3.403
15062SOL    HW257246   5.140   9.032   3.293
15063SOL     OW57247   4.019   8.028   2.080
15063SOL    HW157248   4.106   8.030   2.030
15063SOL    HW257249   4.033   8.062   2.173
15064SOL     OW57250   4.094   9.190   2.591
15064SOL    HW157251   4.029   9.116   2.605
15064SOL    HW257252   4.093   9.217   2.495
15065SOL     OW57253   4.038   8.684   3.114
15065SOL    HW157254   4.029   8.702   3.212
15065SOL    HW257255   3.963   8.728   3.064
15066SOL     OW57256   4.919   8.891   3.651
15066SOL    HW157257   4.862   8.816   3.619
15066SOL    HW257258   4.902   8.972   3.595
15067SOL     OW57259   4.474   8.686   2.368
15067SOL    HW157260   4.515   8.617   2.308
15067SOL    HW257261   4.454   8.645   2.457
15068SOL     OW57262   4.088   8.251   2.585
15068SOL    HW157263   4.065   8.335   2.634
15068SOL    HW257264   4.094   8.175   2.650
15069SOL     OW57265   3.923   7.769   2.079
15069SOL    HW157266   3.989   7.723   2.020
15069SOL    HW257267   3.935   7.868   2.072
15070SOL     OW57268   3.780   7.945   2.650
15070SOL    HW157269   3.700   7.985   2.694
15070SOL    HW257270   3.862   7.971   2.700
15071SOL     OW57271   4.818   7.987   1.923
15071SOL    HW157272   4.800   8.075   1.879
15071SOL    HW257273   4.904   7.949   1.888
15072SOL     OW57274   4.589   8.025   2.078
15072SOL    HW157275   4.674   8.018   2.027
15072SOL    HW257276   4.547   7.935   2.087
15073SOL     OW57277   3.780   7.545   2.002
15073SOL    HW157278   3.831   7.477   2.056
15073SOL    HW257279   3.818   7.636   2.020
15074SOL     OW57280   4.027   8.428   3.016
15074SOL    HW157281   4.035   8.361   3.089
15074SOL    HW257282   4.041   8.520   3.054
15075SOL     OW57283   5.369   8.380   2.051
15075SOL    HW157284   5.452   8.436   2.059
15075SOL    HW257285   5.329   8.393   1.960
15076SOL     OW57286   4.290   8.132   3.016
15076SOL    HW157287   4.349   8.142   3.095
15076SOL    HW257288   4.210   8.076   3.040
15077SOL     OW57289   4.517   8.396   3.352
15077SOL    HW157290   4.568   8.455   3.290
15077SOL    HW257291   4.495   8.447   3.436
15078SOL     OW57292   4.858   8.417   3.577
15078SOL    HW157293   4.798   8.339   3.557
15078SOL    HW257294   4.877   8.420   3.675
15079SOL     OW57295   4.755   7.571   2.426
15079SOL    HW157296   4.845   7.545   2.461
15079SOL    HW257297   4.702   7.489   2.406
15080SOL     OW57298   4.889   9.119   3.489
15080SOL    HW157299   4.817   9.146   3.425
15080SOL    HW257300   4.929   9.201   3.531
15081SOL     OW57301   4.295   7.457   2.728
15081SOL    HW157302   4.238   7.414   2.657
15081SOL    HW257303   4.285   7.406   2.813
15082SOL     OW57304   3.999   9.190   3.104
15082SOL    HW157305   3.971   9.141   3.021
15082SOL    HW257306   3.919   9.205   3.163
15083SOL     OW57307   4.671   8.603   2.731
15083SOL    HW157308   4.708   8.678   2.676
15083SOL    HW257309   4.745   8.559   2.782
15084SOL     OW57310   4.368   8.322   2.814
15084SOL    HW157311   4.402   8.250   2.753
15084SOL    HW257312   4.322   8.280   2.892
15085SOL     OW57313   3.758   8.390   2.978
15085SOL    HW157314   3.853   8.403   3.007
15085SOL    HW257315   3.754   8.325   2.903
15086SOL     OW57316   3.983   7.441   2.186
15086SOL    HW157317   4.037   7.521   2.213
15086SOL    HW257318   3.943   7.399   2.267
15087SOL     OW57319   4.329   8.025   3.567
15087SOL    HW157320   4.286   8.069   3.488
15087SOL    HW257321   4.428   8.036   3.561
15088SOL     OW57322   3.771   8.486   2.094
15088SOL    HW157323   3.801   8.392   2.077
15088SOL    HW257324   3.824   8.548   2.037
15089SOL     OW57325   5.436   7.539   2.741
15089SOL    HW157326   5.460   7.484   2.821
15089SOL    HW257327   5.519   7.570   2.696
15090SOL     OW57328   4.472   8.558   2.927
15090SOL    HW157329   4.433   8.472   2.893
15090SOL    HW257330   4.539   8.593   2.861
15091SOL     OW57331   4.947   7.957   2.172
15091SOL    HW157332   4.959   8.051   2.204
15091SOL    HW257333   4.903   7.957   2.082
15092SOL     OW57334   5.245   8.893   3.570
15092SOL    HW157335   5.193   8.847   3.642
15092SOL    HW257336   5.183   8.918   3.495
15093SOL     OW57337   3.928   8.248   3.217
15093SOL    HW157338   3.940   8.157   3.258
15093SOL    HW257339   3.892   8.311   3.285
15094SOL     OW57340   4.353   9.087   2.918
15094SOL    HW157341   4.350   9.044   2.828
15094SOL    HW257342   4.270   9.064   2.969
15095SOL     OW57343   4.435   8.516   2.609
15095SOL    HW157344   4.519   8.555   2.647
15095SOL    HW257345   4.395   8.453   2.675
15096SOL     OW57346   4.685   8.870   2.347
15096SOL    HW157347   4.751   8.842   2.277
15096SOL    HW257348   4.608   8.807   2.347
15097SOL     OW57349   3.809   8.227   2.765
15097SOL    HW157350   3.894   8.182   2.737
15097SOL    HW257351   3.764   8.265   2.684
15098SOL     OW57352   3.723   8.300   3.670
15098SOL    HW157353   3.623   8.302   3.662
15098SOL    HW257354   3.748   8.241   3.747
15099SOL     OW57355   4.683   9.175   3.304
15099SOL    HW157356   4.640   9.106   3.362
15099SOL    HW257357   4.614   9.237   3.267
15100SOL     OW57358   4.902   8.519   2.871
15100SOL    HW157359   4.927   8.616   2.872
15100SOL    HW257360   4.936   8.476   2.955
15101SOL     OW57361   4.278   7.762   3.619
15101SOL    HW157362   4.348   7.718   3.564
15101SOL    HW257363   4.287   7.861   3.613
15102SOL     OW57364   4.238   8.240   2.173
15102SOL    HW157365   4.212   8.331   2.142
15102SOL    HW257366   4.170   8.206   2.238
15103SOL     OW57367   5.360   8.264   2.844
15103SOL    HW157368   5.364   8.354   2.801
15103SOL    HW257369   5.264   8.236   2.855
15104SOL     OW57370   3.630   7.450   2.381
15104SOL    HW157371   3.552   7.460   2.442
15104SOL    HW257372   3.656   7.539   2.345
15105SOL     OW57373   4.982   7.479   3.640
15105SOL    HW157374   5.032   7.434   3.713
15105SOL    HW257375   4.938   7.562   3.676
15106SOL     OW57376   4.144   8.959   3.456
15106SOL    HW157377   4.084   9.020   3.508
15106SOL    HW257378   4.181   9.009   3.377
15107SOL     OW57379   5.462   8.870   3.394
15107SOL    HW157380   5.517   8.951   3.413
15107SOL    HW257381   5.385   8.866   3.457
15108SOL     OW57382   4.669   7.990   2.961
15108SOL    HW157383   4.684   8.062   2.894
15108SOL    HW257384   4.736   7.999   3.035
15109SOL     OW57385   4.147   8.870   2.558
15109SOL    HW157386   4.150   8.770   2.557
15109SOL    HW257387   4.053   8.901   2.573
15110SOL     OW57388   4.789   8.970   2.992
15110SOL    HW157389   4.729   8.966   2.912
15110SOL    HW257390   4.734   8.984   3.074
15111SOL     OW57391   3.973   9.120   3.603
15111SOL    HW157392   3.998   9.210   3.570
15111SOL    HW257393   3.978   9.118   3.703
15112SOL     OW57394   3.778   8.651   3.502
15112SOL    HW157395   3.772   8.558   3.465
15112SOL    HW257396   3.713   8.709   3.453
15113SOL     OW57397   3.885   9.033   2.891
15113SOL    HW157398   3.867   8.940   2.924
15113SOL    HW257399   3.901   9.031   2.792
15114SOL     OW57400   4.843   8.529   2.348
15114SOL    HW157401   4.935   8.567   2.339
15114SOL    HW257402   4.847   8.441   2.395
15115SOL     OW57403   5.319   7.785   2.657
15115SOL    HW157404   5.351   7.859   2.716
15115SOL    HW257405   5.349   7.697   2.695
15116SOL     OW57406   4.598   8.488   2.237
15116SOL    HW157407   4.692   8.507   2.266
15116SOL    HW257408   4.586   8.390   2.227
15117SOL     OW57409   4.543   7.564   1.931
15117SOL    HW157410   4.617   7.499   1.951
15117SOL    HW257411   4.536   7.630   2.005
15118SOL     OW57412   4.200   7.913   2.595
15118SOL    HW157413   4.243   7.824   2.608
15118SOL    HW257414   4.253   7.966   2.529
15119SOL     OW57415   4.257   8.413   3.271
15119SOL    HW157416   4.348   8.393   3.306
15119SOL    HW257417   4.260   8.497   3.216
15120SOL     OW57418   5.450   8.514   3.200
15120SOL    HW157419   5.443   8.611   3.178
15120SOL    HW257420   5.497   8.466   3.126
15121SOL     OW57421   3.917   8.654   1.935
15121SOL    HW157422   3.883   8.681   1.845
15121SOL    HW257423   3.975   8.726   1.972
15122SOL     OW57424   5.029   8.480   3.370
15122SOL    HW157425   4.975   8.449   3.447
15122SOL    HW257426   5.013   8.578   3.355
15123SOL     OW57427   4.236   9.098   3.230
15123SOL    HW157428   4.302   9.173   3.236
15123SOL    HW257429   4.152   9.130   3.187
15124SOL     OW57430   3.882   7.982   3.612
15124SOL    HW157431   3.889   7.883   3.608
15124SOL    HW257432   3.961   8.019   3.662
15125SOL     OW57433   5.345   8.918   2.906
15125SOL    HW157434   5.381   9.009   2.926
15125SOL    HW257435   5.362   8.858   2.984
15126SOL     OW57436   3.684   8.331   2.532
15126SOL    HW157437   3.712   8.409   2.476
15126SOL    HW257438   3.584   8.330   2.541
15127SOL     OW57439   4.204   8.141   3.359
15127SOL    HW157440   4.116   8.096   3.344
15127SOL    HW257441   4.204   8.229   3.312
15128SOL     OW57442   5.360   8.533   2.710
15128SOL    HW157443   5.340   8.631   2.701
15128SOL    HW257444   5.309   8.482   2.641
15129SOL     OW57445   4.411   7.910   2.898
15129SOL    HW157446   4.508   7.917   2.922
15129SOL    HW257447   4.362   7.988   2.937
15130SOL     OW57448   4.311   8.655   3.131
15130SOL    HW157449   4.217   8.676   3.108
15130SOL    HW257450   4.362   8.629   3.049
15131SOL     OW57451   3.833   8.091   3.010
15131SOL    HW157452   3.856   8.159   3.080
15131SOL    HW257453   3.823   8.136   2.921
15132SOL     OW57454   4.016   8.728   3.384
15132SOL    HW157455   4.059   8.814   3.410
15132SOL    HW257456   3.928   8.719   3.432
15133SOL     OW57457   5.347   9.143   3.625
15133SOL    HW157458   5.316   9.048   3.625
15133SOL    HW257459   5.303   9.193   3.551
15134SOL     OW57460   5.120   8.546   2.333
15134SOL    HW157461   5.202   8.598   2.357
15134SOL    HW257462   5.114   8.539   2.233
15135SOL     OW57463   4.337   7.742   2.327
15135SOL    HW157464   4.241   7.729   2.304
15135SOL    HW257465   4.351   7.724   2.424
15136SOL     OW57466   5.272   7.424   2.551
15136SOL    HW157467   5.303   7.471   2.468
15136SOL    HW257468   5.322   7.459   2.630
15137SOL     OW57469   4.843   8.091   3.172
15137SOL    HW157470   4.942   8.103   3.165
15137SOL    HW257471   4.797   8.172   3.134
15138SOL     OW57472   4.457   8.090   2.685
15138SOL    HW157473   4.432   8.013   2.743
15138SOL    HW257474   4.439   8.067   2.590
15139SOL     OW57475   4.972   8.785   2.895
15139SOL    HW157476   4.905   8.845   2.938
15139SOL    HW257477   5.005   8.827   2.810
15140SOL     OW57478   5.082   7.784   2.511
15140SOL    HW157479   5.107   7.789   2.414
15140SOL    HW257480   5.164   7.795   2.567
15141SOL     OW57481   4.771   8.838   4.455
15141SOL    HW157482   4.861   8.881   4.460
15141SOL    HW257483   4.736   8.843   4.362
15142SOL     OW57484   5.323   8.033   5.069
15142SOL    HW157485   5.260   7.977   5.122
15142SOL    HW257486   5.375   8.092   5.131
15143SOL     OW57487   4.068   7.619   3.705
15143SOL    HW157488   3.991   7.643   3.646
15143SOL    HW257489   4.149   7.671   3.677
15144SOL     OW57490   5.019   8.960   4.497
15144SOL    HW157491   5.019   9.057   4.519
15144SOL    HW257492   5.101   8.937   4.445
15145SOL     OW57493   4.872   7.465   5.002
15145SOL    HW157494   4.795   7.417   5.044
15145SOL    HW257495   4.923   7.403   4.943
15146SOL     OW57496   4.646   8.269   5.436
15146SOL    HW157497   4.605   8.281   5.346
15146SOL    HW257498   4.578   8.288   5.507
15147SOL     OW57499   4.233   7.426   3.820
15147SOL    HW157500   4.327   7.458   3.822
15147SOL    HW257501   4.174   7.496   3.780
15148SOL     OW57502   5.258   8.422   5.250
15148SOL    HW157503   5.166   8.434   5.212
15148SOL    HW257504   5.312   8.504   5.234
15149SOL     OW57505   5.115   8.435   4.887
15149SOL    HW157506   5.068   8.437   4.976
15149SOL    HW257507   5.154   8.526   4.869
15150SOL     OW57508   4.692   8.690   5.180
15150SOL    HW157509   4.609   8.746   5.176
15150SOL    HW257510   4.684   8.614   5.115
15151SOL     OW57511   4.170   8.587   4.382
15151SOL    HW157512   4.120   8.552   4.461
15151SOL    HW257513   4.266   8.562   4.389
15152SOL     OW57514   4.420   7.988   4.245
15152SOL    HW157515   4.431   8.065   4.183
15152SOL    HW257516   4.393   7.907   4.194
15153SOL     OW57517   4.968   7.907   5.452
15153SOL    HW157518   5.062   7.887   5.479
15153SOL    HW257519   4.911   7.826   5.466
15154SOL     OW57520   4.091   8.734   3.789
15154SOL    HW157521   4.160   8.741   3.717
15154SOL    HW257522   4.081   8.823   3.835
15155SOL     OW57523   4.256   7.692   4.700
15155SOL    HW157524   4.316   7.772   4.697
15155SOL    HW257525   4.301   7.614   4.657
15156SOL     OW57526   4.017   8.140   4.205
15156SOL    HW157527   4.053   8.175   4.291
15156SOL    HW257528   3.920   8.116   4.217
15157SOL     OW57529   4.524   9.039   4.346
15157SOL    HW157530   4.573   8.974   4.287
15157SOL    HW257531   4.553   9.132   4.324
15158SOL     OW57532   5.490   8.988   4.143
15158SOL    HW157533   5.578   8.943   4.126
15158SOL    HW257534   5.461   9.037   4.061
15159SOL     OW57535   5.356   7.708   4.819
15159SOL    HW157536   5.397   7.800   4.825
15159SOL    HW257537   5.257   7.715   4.824
15160SOL     OW57538   4.773   7.767   4.052
15160SOL    HW157539   4.809   7.857   4.076
15160SOL    HW257540   4.781   7.705   4.131
15161SOL     OW57541   3.846   8.356   5.300
15161SOL    HW157542   3.938   8.394   5.310
15161SOL    HW257543   3.811   8.328   5.390
15162SOL     OW57544   4.115   8.087   3.729
15162SOL    HW157545   4.121   8.187   3.732
15162SOL    HW257546   4.193   8.051   3.678
15163SOL     OW57547   4.385   8.951   4.565
15163SOL    HW157548   4.431   8.991   4.485
15163SOL    HW257549   4.313   8.889   4.535
15164SOL     OW57550   4.674   7.989   5.243
15164SOL    HW157551   4.716   7.912   5.292
15164SOL    HW257552   4.746   8.047   5.205
15165SOL     OW57553   3.999   8.631   4.164
15165SOL    HW157554   4.055   8.630   4.247
15165SOL    HW257555   4.049   8.586   4.089
15166SOL     OW57556   4.921   7.656   3.848
15166SOL    HW157557   4.984   7.593   3.892
15166SOL    HW257558   4.862   7.699   3.916
15167SOL     OW57559   4.096   7.933   4.874
15167SOL    HW157560   4.090   7.835   4.893
15167SOL    HW257561   4.005   7.974   4.882
15168SOL     OW57562   5.102   8.162   4.970
15168SOL    HW157563   5.121   8.254   4.936
15168SOL    HW257564   5.187   8.120   5.001
15169SOL     OW57565   4.081   7.676   4.154
15169SOL    HW157566   4.029   7.713   4.232
15169SOL    HW257567   4.030   7.693   4.070
15170SOL     OW57568   5.209   9.321   4.963
15170SOL    HW157569   5.170   9.243   4.914
15170SOL    HW257570   5.299   9.342   4.926
15171SOL     OW57571   5.461   7.961   4.845
15171SOL    HW157572   5.560   7.976   4.854
15171SOL    HW257573   5.415   7.988   4.929
15172SOL     OW57574   4.643   7.849   4.346
15172SOL    HW157575   4.703   7.892   4.413
15172SOL    HW257576   4.579   7.916   4.310
15173SOL     OW57577   4.862   8.389   3.847
15173SOL    HW157578   4.833   8.437   3.930
15173SOL    HW257579   4.849   8.291   3.859
15174SOL     OW57580   4.798   7.696   5.498
15174SOL    HW157581   4.835   7.663   5.585
15174SOL    HW257582   4.699   7.685   5.498
15175SOL     OW57583   4.466   7.440   5.411
15175SOL    HW157584   4.485   7.346   5.383
15175SOL    HW257585   4.469   7.446   5.511
15176SOL     OW57586   5.403   8.065   4.599
15176SOL    HW157587   5.337   8.140   4.603
15176SOL    HW257588   5.421   8.031   4.691
15177SOL     OW57589   4.777   8.640   5.447
15177SOL    HW157590   4.829   8.557   5.431
15177SOL    HW257591   4.732   8.668   5.362
15178SOL     OW57592   4.418   8.533   5.404
15178SOL    HW157593   4.360   8.614   5.410
15178SOL    HW257594   4.437   8.499   5.496
15179SOL     OW57595   5.088   7.341   4.586
15179SOL    HW157596   5.044   7.430   4.596
15179SOL    HW257597   5.172   7.352   4.533
15180SOL     OW57598   5.451   7.597   5.479
15180SOL    HW157599   5.406   7.607   5.568
15180SOL    HW257600   5.475   7.501   5.465
15181SOL     OW57601   3.757   8.087   4.279
15181SOL    HW157602   3.763   8.019   4.352
15181SOL    HW257603   3.731   8.175   4.318
15182SOL     OW57604   4.054   7.599   4.513
15182SOL    HW157605   4.116   7.641   4.579
15182SOL    HW257606   4.094   7.514   4.479
15183SOL     OW57607   4.082   7.635   4.904
15183SOL    HW157608   4.065   7.537   4.909
15183SOL    HW257609   4.146   7.654   4.829
15184SOL     OW57610   4.804   8.171   4.644
15184SOL    HW157611   4.810   8.246   4.579
15184SOL    HW257612   4.795   8.084   4.595
15185SOL     OW57613   3.790   8.775   4.015
15185SOL    HW157614   3.858   8.738   4.078
15185SOL    HW257615   3.792   8.723   3.929
15186SOL     OW57616   5.162   8.710   4.887
15186SOL    HW157617   5.096   8.741   4.818
15186SOL    HW257618   5.130   8.736   4.978
15187SOL     OW57619   4.172   8.356   3.716
15187SOL    HW157620   4.143   8.403   3.633
15187SOL    HW257621   4.154   8.414   3.795
15188SOL     OW57622   4.646   8.490   4.996
15188SOL    HW157623   4.692   8.408   4.964
15188SOL    HW257624   4.585   8.525   4.925
15189SOL     OW57625   3.777   8.164   3.901
15189SOL    HW157626   3.854   8.101   3.913
15189SOL    HW257627   3.699   8.132   3.954
15190SOL     OW57628   4.646   9.195   4.800
15190SOL    HW157629   4.654   9.109   4.751
15190SOL    HW257630   4.553   9.206   4.835
15191SOL     OW57631   4.441   8.286   3.745
15191SOL    HW157632   4.462   8.195   3.781
15191SOL    HW257633   4.342   8.293   3.731
15192SOL     OW57634   5.077   7.845   4.173
15192SOL    HW157635   5.018   7.918   4.137
15192SOL    HW257636   5.173   7.872   4.165
15193SOL     OW57637   3.972   7.984   5.189
15193SOL    HW157638   3.953   7.898   5.142
15193SOL    HW257639   3.931   7.982   5.280
15194SOL     OW57640   3.903   7.733   5.087
15194SOL    HW157641   3.970   7.696   5.024
15194SOL    HW257642   3.811   7.707   5.058
15195SOL     OW57643   4.723   8.248   4.897
15195SOL    HW157644   4.747   8.221   4.803
15195SOL    HW257645   4.642   8.198   4.926
15196SOL     OW57646   5.356   7.875   4.202
15196SOL    HW157647   5.424   7.808   4.170
15196SOL    HW257648   5.340   7.862   4.300
15197SOL     OW57649   4.642   8.959   4.669
15197SOL    HW157650   4.697   8.918   4.596
15197SOL    HW257651   4.545   8.951   4.646
15198SOL     OW57652   4.526   7.770   3.938
15198SOL    HW157653   4.458   7.755   4.010
15198SOL    HW257654   4.618   7.767   3.978
15199SOL     OW57655   4.655   8.657   3.823
15199SOL    HW157656   4.721   8.662   3.898
15199SOL    HW257657   4.703   8.650   3.736
15200SOL     OW57658   5.488   9.040   4.415
15200SOL    HW157659   5.430   9.119   4.436
15200SOL    HW257660   5.482   9.019   4.318
15201SOL     OW57661   4.832   8.207   4.296
15201SOL    HW157662   4.893   8.262   4.352
15201SOL    HW257663   4.749   8.258   4.276
15202SOL     OW57664   4.548   8.993   5.338
15202SOL    HW157665   4.514   8.928   5.270
15202SOL    HW257666   4.553   8.947   5.427
15203SOL     OW57667   4.988   8.370   4.474
15203SOL    HW157668   5.069   8.323   4.508
15203SOL    HW257669   4.953   8.433   4.543
15204SOL     OW57670   4.032   8.473   4.595
15204SOL    HW157671   3.941   8.516   4.591
15204SOL    HW257672   4.051   8.446   4.689
15205SOL     OW57673   4.603   8.345   4.236
15205SOL    HW157674   4.547   8.290   4.174
15205SOL    HW257675   4.545   8.385   4.307
15206SOL     OW57676   4.943   8.769   5.103
15206SOL    HW157677   4.937   8.848   5.042
15206SOL    HW257678   4.853   8.746   5.137
15207SOL     OW57679   3.745   7.741   4.126
15207SOL    HW157680   3.805   7.745   4.047
15207SOL    HW257681   3.800   7.751   4.210
15208SOL     OW57682   5.412   9.159   3.923
15208SOL    HW157683   5.491   9.220   3.914
15208SOL    HW257684   5.373   9.142   3.832
15209SOL     OW57685   4.525   8.134   5.057
15209SOL    HW157686   4.512   8.216   5.113
15209SOL    HW257687   4.571   8.064   5.111
15210SOL     OW57688   4.449   8.191   4.069
15210SOL    HW157689   4.355   8.222   4.054
15210SOL    HW257690   4.482   8.141   3.988
15211SOL     OW57691   4.023   7.971   4.605
15211SOL    HW157692   4.087   7.939   4.535
15211SOL    HW257693   4.062   7.955   4.696
15212SOL     OW57694   5.111   9.118   4.807
15212SOL    HW157695   5.090   9.161   4.720
15212SOL    HW257696   5.184   9.050   4.794
15213SOL     OW57697   3.770   8.572   4.642
15213SOL    HW157698   3.685   8.570   4.589
15213SOL    HW257699   3.766   8.505   4.716
15214SOL     OW57700   4.421   7.452   4.115
15214SOL    HW157701   4.450   7.439   4.020
15214SOL    HW257702   4.393   7.547   4.128
15215SOL     OW57703   3.739   8.519   4.215
15215SOL    HW157704   3.825   8.569   4.227
15215SOL    HW257705   3.732   8.486   4.121
15216SOL     OW57706   5.297   7.665   5.261
15216SOL    HW157707   5.252   7.754   5.259
15216SOL    HW257708   5.352   7.657   5.344
15217SOL     OW57709   4.991   7.599   4.628
15217SOL    HW157710   5.006   7.662   4.552
15217SOL    HW257711   5.024   7.640   4.713
15218SOL     OW57712   5.116   7.381   3.852
15218SOL    HW157713   5.215   7.383   3.866
15218SOL    HW257714   5.080   7.292   3.882
15219SOL     OW57715   5.277   7.383   5.264
15219SOL    HW157716   5.262   7.348   5.172
15219SOL    HW257717   5.278   7.483   5.262
15220SOL     OW57718   4.413   7.703   4.407
15220SOL    HW157719   4.405   7.620   4.462
15220SOL    HW257720   4.507   7.736   4.409
15221SOL     OW57721   4.944   7.994   4.823
15221SOL    HW157722   4.905   8.053   4.752
15221SOL    HW257723   5.000   8.049   4.885
15222SOL     OW57724   5.268   7.425   4.161
15222SOL    HW157725   5.286   7.386   4.071
15222SOL    HW257726   5.182   7.477   4.158
15223SOL     OW57727   4.275   8.775   5.470
15223SOL    HW157728   4.238   8.838   5.403
15223SOL    HW257729   4.364   8.809   5.502
15224SOL     OW57730   4.098   8.462   5.313
15224SOL    HW157731   4.158   8.423   5.243
15224SOL    HW257732   4.085   8.559   5.296
15225SOL     OW57733   3.830   8.769   4.827
15225SOL    HW157734   3.816   8.709   4.748
15225SOL    HW257735   3.744   8.783   4.875
15226SOL     OW57736   4.814   7.919   4.543
15226SOL    HW157737   4.900   7.878   4.513
15226SOL    HW257738   4.779   7.869   4.622
15227SOL     OW57739   5.447   8.004   5.429
15227SOL    HW157740   5.439   8.076   5.360
15227SOL    HW257741   5.544   7.988   5.448
15228SOL     OW57742   5.081   7.750   4.845
15228SOL    HW157743   5.038   7.839   4.832
15228SOL    HW257744   5.064   7.718   4.939
15229SOL     OW57745   5.230   7.849   5.515
15229SOL    HW157746   5.308   7.903   5.483
15229SOL    HW257747   5.260   7.784   5.584
15230SOL     OW57748   5.439   8.213   5.235
15230SOL    HW157749   5.368   8.283   5.236
15230SOL    HW257750   5.529   8.257   5.241
15231SOL     OW57751   4.448   8.819   5.142
15231SOL    HW157752   4.400   8.903   5.116
15231SOL    HW257753   4.405   8.741   5.096
15232SOL     OW57754   3.867   7.663   5.356
15232SOL    HW157755   3.873   7.680   5.257
15232SOL    HW257756   3.779   7.622   5.377
15233SOL     OW57757   3.745   9.018   5.349
15233SOL    HW157758   3.833   9.061   5.372
15233SOL    HW257759   3.677   9.044   5.417
15234SOL     OW57760   3.896   7.746   4.353
15234SOL    HW157761   3.851   7.817   4.407
15234SOL    HW257762   3.952   7.690   4.412
15235SOL     OW57763   3.994   7.995   3.958
15235SOL    HW157764   4.052   8.030   3.884
15235SOL    HW257765   4.020   8.039   4.044
15236SOL     OW57766   5.473   7.608   5.055
15236SOL    HW157767   5.407   7.632   5.126
15236SOL    HW257768   5.436   7.633   4.965
15237SOL     OW57769   4.052   8.664   4.964
15237SOL    HW157770   4.047   8.687   5.061
15237SOL    HW257771   3.978   8.710   4.915
15238SOL     OW57772   4.860   8.895   5.535
15238SOL    HW157773   4.816   8.807   5.516
15238SOL    HW257774   4.940   8.906   5.476
15239SOL     OW57775   4.499   8.634   4.188
15239SOL    HW157776   4.476   8.584   4.105
15239SOL    HW257777   4.468   8.580   4.268
15240SOL     OW57778   4.086   8.238   4.455
15240SOL    HW157779   4.071   8.327   4.496
15240SOL    HW257780   4.151   8.186   4.510
15241SOL     OW57781   3.936   7.729   3.924
15241SOL    HW157782   3.987   7.690   3.848
15241SOL    HW257783   3.953   7.828   3.928
15242SOL     OW57784   3.771   7.934   4.507
15242SOL    HW157785   3.696   7.982   4.553
15242SOL    HW257786   3.857   7.952   4.554
15243SOL     OW57787   4.169   8.527   3.947
15243SOL    HW157788   4.269   8.530   3.953
15243SOL    HW257789   4.137   8.605   3.893
15244SOL     OW57790   4.811   8.106   3.816
15244SOL    HW157791   4.772   8.144   3.732
15244SOL    HW257792   4.884   8.041   3.793
15245SOL     OW57793   4.538   8.042   3.857
15245SOL    HW157794   4.637   8.058   3.848
15245SOL    HW257795   4.520   7.945   3.870
15246SOL     OW57796   5.036   7.574   4.166
15246SOL    HW157797   4.947   7.565   4.211
15246SOL    HW257798   5.060   7.671   4.159
15247SOL     OW57799   5.132   7.896   5.208
15247SOL    HW157800   5.078   7.933   5.283
15247SOL    HW257801   5.079   7.824   5.161
15248SOL     OW57802   3.787   7.480   3.855
15248SOL    HW157803   3.855   7.408   3.868
15248SOL    HW257804   3.822   7.566   3.893
15249SOL     OW57805   4.039   8.409   4.870
15249SOL    HW157806   4.045   8.342   4.944
15249SOL    HW257807   4.052   8.501   4.907
15250SOL     OW57808   4.329   8.096   4.857
15250SOL    HW157809   4.381   8.108   4.942
15250SOL    HW257810   4.244   8.046   4.877
15251SOL     OW57811   4.518   8.371   5.210
15251SOL    HW157812   4.568   8.421   5.139
15251SOL    HW257813   4.484   8.435   5.279
15252SOL     OW57814   4.876   8.396   5.354
15252SOL    HW157815   4.789   8.353   5.379
15252SOL    HW257816   4.951   8.334   5.376
15253SOL     OW57817   4.785   7.624   4.292
15253SOL    HW157818   4.734   7.709   4.308
15253SOL    HW257819   4.772   7.562   4.369
15254SOL     OW57820   4.365   7.486   4.561
15254SOL    HW157821   4.301   7.423   4.517
15254SOL    HW257822   4.441   7.435   4.600
15255SOL     OW57823   4.661   8.607   4.565
15255SOL    HW157824   4.689   8.693   4.522
15255SOL    HW257825   4.742   8.564   4.606
15256SOL     OW57826   4.390   8.301   4.660
15256SOL    HW157827   4.420   8.232   4.594
15256SOL    HW257828   4.352   8.256   4.741
15257SOL     OW57829   3.769   8.378   4.831
15257SOL    HW157830   3.865   8.389   4.859
15257SOL    HW257831   3.763   8.310   4.758
15258SOL     OW57832   3.971   7.411   4.150
15258SOL    HW157833   4.025   7.492   4.172
15258SOL    HW257834   3.876   7.426   4.181
15259SOL     OW57835   4.417   8.030   5.356
15259SOL    HW157836   4.356   8.053   5.281
15259SOL    HW257837   4.510   8.017   5.321
15260SOL     OW57838   3.757   8.438   3.953
15260SOL    HW157839   3.780   8.343   3.932
15260SOL    HW257840   3.794   8.498   3.882
15261SOL     OW57841   5.440   7.608   4.575
15261SOL    HW157842   5.411   7.630   4.668
15261SOL    HW257843   5.536   7.581   4.576
15262SOL     OW57844   4.485   8.539   4.773
15262SOL    HW157845   4.447   8.453   4.736
15262SOL    HW257846   4.542   8.582   4.704
15263SOL     OW57847   4.872   8.022   4.093
15263SOL    HW157848   4.859   8.084   4.171
15263SOL    HW257849   4.847   8.070   4.009
15264SOL     OW57850   5.061   8.823   5.354
15264SOL    HW157851   5.080   8.734   5.396
15264SOL    HW257852   5.025   8.809   5.262
15265SOL     OW57853   3.943   8.228   5.071
15265SOL    HW157854   3.956   8.137   5.111
15265SOL    HW257855   3.902   8.289   5.140
15266SOL     OW57856   4.523   8.867   3.704
15266SOL    HW157857   4.532   8.938   3.774
15266SOL    HW257858   4.569   8.784   3.734
15267SOL     OW57859   4.279   9.029   4.817
15267SOL    HW157860   4.326   9.009   4.732
15267SOL    HW257861   4.182   9.008   4.808
15268SOL     OW57862   4.449   8.484   4.433
15268SOL    HW157863   4.525   8.535   4.474
15268SOL    HW257864   4.411   8.420   4.500
15269SOL     OW57865   4.668   8.848   4.199
15269SOL    HW157866   4.732   8.843   4.123
15269SOL    HW257867   4.604   8.771   4.194
15270SOL     OW57868   3.828   8.215   4.612
15270SOL    HW157869   3.915   8.187   4.572
15270SOL    HW257870   3.769   8.254   4.541
15271SOL     OW57871   3.737   8.277   5.534
15271SOL    HW157872   3.638   8.277   5.524
15271SOL    HW257873   3.762   8.230   5.619
15272SOL     OW57874   4.570   9.226   5.178
15272SOL    HW157875   4.592   9.135   5.212
15272SOL    HW257876   4.529   9.280   5.251
15273SOL     OW57877   4.907   8.530   4.681
15273SOL    HW157878   4.925   8.628   4.689
15273SOL    HW257879   4.939   8.483   4.763
15274SOL     OW57880   4.243   7.794   5.472
15274SOL    HW157881   4.316   7.786   5.405
15274SOL    HW257882   4.234   7.890   5.501
15275SOL     OW57883   4.193   8.264   4.037
15275SOL    HW157884   4.168   8.359   4.014
15275SOL    HW257885   4.125   8.226   4.099
15276SOL     OW57886   5.228   8.313   4.640
15276SOL    HW157887   5.299   8.379   4.615
15276SOL    HW257888   5.186   8.340   4.726
15277SOL     OW57889   5.028   7.661   5.103
15277SOL    HW157890   5.077   7.621   5.180
15277SOL    HW257891   4.962   7.595   5.067
15278SOL     OW57892   3.710   7.480   4.200
15278SOL    HW157893   3.618   7.447   4.181
15278SOL    HW257894   3.717   7.577   4.177
15279SOL     OW57895   4.986   7.522   5.392
15279SOL    HW157896   5.057   7.525   5.463
15279SOL    HW257897   4.913   7.586   5.415
15280SOL     OW57898   4.160   8.959   5.295
15280SOL    HW157899   4.098   9.028   5.334
15280SOL    HW257900   4.213   9.000   5.221
15281SOL     OW57901   4.715   7.833   4.792
15281SOL    HW157902   4.790   7.889   4.825
15281SOL    HW257903   4.722   7.741   4.830
15282SOL     OW57904   4.905   8.976   4.922
15282SOL    HW157905   4.819   9.026   4.917
15282SOL    HW257906   4.980   9.035   4.891
15283SOL     OW57907   3.986   9.149   5.408
15283SOL    HW157908   3.977   9.239   5.366
15283SOL    HW257909   3.993   9.159   5.507
15284SOL     OW57910   3.796   8.645   5.332
15284SOL    HW157911   3.782   8.549   5.305
15284SOL    HW257912   3.725   8.701   5.290
15285SOL     OW57913   4.016   8.968   4.765
15285SOL    HW157914   3.952   8.896   4.792
15285SOL    HW257915   3.970   9.031   4.702
15286SOL     OW57916   4.740   7.514   4.541
15286SOL    HW157917   4.827   7.538   4.586
15286SOL    HW257918   4.681   7.468   4.606
15287SOL     OW57919   4.779   8.504   4.080
15287SOL    HW157920   4.850   8.538   4.142
15287SOL    HW257921   4.707   8.459   4.132
15288SOL     OW57922   5.317   7.834   4.471
15288SOL    HW157923   5.350   7.915   4.519
15288SOL    HW257924   5.365   7.753   4.505
15289SOL     OW57925   4.447   8.512   3.930
15289SOL    HW157926   4.520   8.570   3.896
15289SOL    HW257927   4.456   8.420   3.890
15290SOL     OW57928   4.496   7.505   3.834
15290SOL    HW157929   4.575   7.445   3.846
15290SOL    HW257930   4.521   7.599   3.857
15291SOL     OW57931   4.209   7.893   4.425
15291SOL    HW157932   4.270   7.814   4.434
15291SOL    HW257933   4.246   7.955   4.356
15292SOL     OW57934   4.262   8.379   5.111
15292SOL    HW157935   4.350   8.358   5.154
15292SOL    HW257936   4.270   8.462   5.057
15293SOL     OW57937   3.839   8.631   3.773
15293SOL    HW157938   3.804   8.635   3.680
15293SOL    HW257939   3.934   8.663   3.775
15294SOL     OW57940   5.014   8.498   5.139
15294SOL    HW157941   4.954   8.458   5.208
15294SOL    HW257942   4.988   8.594   5.124
15295SOL     OW57943   4.327   9.059   5.086
15295SOL    HW157944   4.389   9.136   5.100
15295SOL    HW257945   4.304   9.052   4.989
15296SOL     OW57946   3.851   7.927   5.432
15296SOL    HW157947   3.860   7.829   5.415
15296SOL    HW257948   3.901   7.951   5.516
15297SOL     OW57949   5.299   8.928   4.766
15297SOL    HW157950   5.379   8.917   4.706
15297SOL    HW257951   5.277   8.841   4.809
15298SOL     OW57952   3.680   8.318   4.396
15298SOL    HW157953   3.710   8.395   4.339
15298SOL    HW257954   3.581   8.317   4.401
15299SOL     OW57955   4.228   8.100   5.174
15299SOL    HW157956   4.139   8.054   5.177
15299SOL    HW257957   4.216   8.193   5.138
15300SOL     OW57958   4.450   7.899   4.706
15300SOL    HW157959   4.542   7.877   4.737
15300SOL    HW257960   4.411   7.972   4.763
15301SOL     OW57961   4.324   8.621   4.984
15301SOL    HW157962   4.232   8.651   4.961
15301SOL    HW257963   4.375   8.603   4.900
15302SOL     OW57964   3.855   8.074   4.858
15302SOL    HW157965   3.877   8.143   4.927
15302SOL    HW257966   3.853   8.118   4.768
15303SOL     OW57967   4.039   8.719   5.230
15303SOL    HW157968   4.079   8.808   5.255
15303SOL    HW257969   3.948   8.711   5.271
15304SOL     OW57970   4.986   8.551   4.259
15304SOL    HW157971   4.981   8.489   4.338
15304SOL    HW257972   5.071   8.534   4.209
15305SOL     OW57973   4.348   7.727   4.148
15305SOL    HW157974   4.250   7.710   4.140
15305SOL    HW257975   4.377   7.714   4.243
15306SOL     OW57976   5.311   7.397   4.434
15306SOL    HW157977   5.290   7.415   4.338
15306SOL    HW257978   5.356   7.476   4.474
15307SOL     OW57979   4.857   8.142   5.113
15307SOL    HW157980   4.956   8.140   5.096
15307SOL    HW257981   4.811   8.187   5.038
15308SOL     OW57982   4.447   8.091   4.501
15308SOL    HW157983   4.446   8.013   4.563
15308SOL    HW257984   4.437   8.058   4.407
15309SOL     OW57985   4.968   8.796   4.717
15309SOL    HW157986   4.923   8.854   4.786
15309SOL    HW257987   4.985   8.850   4.635
15310SOL     OW57988   5.045   7.801   4.447
15310SOL    HW157989   5.032   7.807   4.348
15310SOL    HW257990   5.142   7.816   4.469
15311SOL     OW57991   4.744   8.854   6.297
15311SOL    HW157992   4.827   8.908   6.297
15311SOL    HW257993   4.700   8.860   6.208
15312SOL     OW57994   5.457   7.997   6.944
15312SOL    HW157995   5.461   7.898   6.934
15312SOL    HW257996   5.474   8.021   7.040
15313SOL     OW57997   4.089   7.576   5.481
15313SOL    HW157998   4.006   7.601   5.431
15313SOL    HW257999   4.157   7.648   5.472
15314SOL     OW58000   4.965   9.011   6.299
15314SOL    HW158001   4.976   9.094   6.352
15314SOL    HW258002   5.051   8.989   6.253
15315SOL     OW58003   4.914   7.416   6.857
15315SOL    HW158004   4.827   7.390   6.899
15315SOL    HW258005   4.935   7.354   6.782
15316SOL     OW58006   4.539   8.196   7.226
15316SOL    HW158007   4.560   8.266   7.158
15316SOL    HW258008   4.505   8.240   7.310
15317SOL     OW58009   4.225   8.857   5.947
15317SOL    HW158010   4.179   8.883   6.032
15317SOL    HW258011   4.290   8.783   5.967
15318SOL     OW58012   4.225   7.416   5.662
15318SOL    HW158013   4.318   7.449   5.676
15318SOL    HW258014   4.180   7.470   5.591
15319SOL     OW58015   4.624   8.778   7.067
15319SOL    HW158016   4.543   8.831   7.047
15319SOL    HW258017   4.627   8.697   7.008
15320SOL     OW58018   4.155   8.585   6.243
15320SOL    HW158019   4.102   8.543   6.316
15320SOL    HW258020   4.252   8.560   6.253
15321SOL     OW58021   4.427   7.988   6.090
15321SOL    HW158022   4.432   8.069   6.032
15321SOL    HW258023   4.388   7.911   6.039
15322SOL     OW58024   4.111   8.779   5.696
15322SOL    HW158025   4.170   8.786   5.615
15322SOL    HW258026   4.156   8.822   5.774
15323SOL     OW58027   4.232   7.670   6.578
15323SOL    HW158028   4.238   7.768   6.557
15323SOL    HW258029   4.314   7.624   6.543
15324SOL     OW58030   3.898   8.226   6.048
15324SOL    HW158031   3.962   8.228   6.124
15324SOL    HW258032   3.808   8.258   6.078
15325SOL     OW58033   4.459   9.075   6.150
15325SOL    HW158034   4.517   9.004   6.111
15325SOL    HW258035   4.473   9.161   6.100
15326SOL     OW58036   5.475   9.049   5.895
15326SOL    HW158037   5.552   9.008   5.943
15326SOL    HW258038   5.478   9.024   5.798
15327SOL     OW58039   5.441   7.723   6.616
15327SOL    HW158040   5.473   7.817   6.630
15327SOL    HW258041   5.341   7.720   6.627
15328SOL     OW58042   4.750   7.745   5.907
15328SOL    HW158043   4.797   7.833   5.904
15328SOL    HW258044   4.753   7.708   6.000
15329SOL     OW58045   3.859   8.397   7.135
15329SOL    HW158046   3.953   8.424   7.156
15329SOL    HW258047   3.817   8.358   7.217
15330SOL     OW58048   4.220   8.076   5.537
15330SOL    HW158049   4.194   8.173   5.539
15330SOL    HW258050   4.298   8.063   5.476
15331SOL     OW58051   4.347   8.977   6.378
15331SOL    HW158052   4.398   9.018   6.302
15331SOL    HW258053   4.271   8.924   6.342
15332SOL     OW58054   3.999   8.615   6.016
15332SOL    HW158055   4.055   8.602   6.098
15332SOL    HW258056   4.045   8.573   5.938
15333SOL     OW58057   4.909   7.607   5.727
15333SOL    HW158058   4.975   7.546   5.770
15333SOL    HW258059   4.852   7.650   5.797
15334SOL     OW58060   4.052   7.902   6.775
15334SOL    HW158061   4.040   7.803   6.771
15334SOL    HW258062   3.978   7.946   6.724
15335SOL     OW58063   4.035   7.708   5.964
15335SOL    HW158064   3.962   7.757   6.010
15335SOL    HW258065   4.021   7.710   5.865
15336SOL     OW58066   5.200   9.161   6.845
15336SOL    HW158067   5.116   9.171   6.791
15336SOL    HW258068   5.279   9.164   6.784
15337SOL     OW58069   5.497   7.994   6.673
15337SOL    HW158070   5.581   8.046   6.661
15337SOL    HW258071   5.467   8.002   6.768
15338SOL     OW58072   4.631   7.871   6.233
15338SOL    HW158073   4.689   7.930   6.290
15338SOL    HW258074   4.566   7.928   6.183
15339SOL     OW58075   4.922   8.333   5.696
15339SOL    HW158076   4.937   8.297   5.787
15339SOL    HW258077   4.879   8.263   5.639
15340SOL     OW58078   5.431   8.053   5.918
15340SOL    HW158079   5.386   7.964   5.922
15340SOL    HW258080   5.510   8.053   5.979
15341SOL     OW58081   4.724   9.070   5.704
15341SOL    HW158082   4.773   9.017   5.634
15341SOL    HW258083   4.719   9.017   5.789
15342SOL     OW58084   4.475   7.420   7.269
15342SOL    HW158085   4.490   7.324   7.243
15342SOL    HW258086   4.482   7.428   7.368
15343SOL     OW58087   5.416   8.031   6.410
15343SOL    HW158088   5.375   8.117   6.383
15343SOL    HW258089   5.429   8.029   6.509
15344SOL     OW58090   4.776   8.761   7.303
15344SOL    HW158091   4.860   8.719   7.269
15344SOL    HW258092   4.710   8.767   7.228
15345SOL     OW58093   4.436   8.530   7.270
15345SOL    HW158094   4.379   8.611   7.286
15345SOL    HW258095   4.426   8.466   7.346
15346SOL     OW58096   5.060   7.357   6.406
15346SOL    HW158097   5.018   7.448   6.408
15346SOL    HW258098   5.152   7.364   6.368
15347SOL     OW58099   5.533   7.540   7.306
15347SOL    HW158100   5.540   7.538   7.406
15347SOL    HW258101   5.560   7.450   7.270
15348SOL     OW58102   4.090   7.593   6.347
15348SOL    HW158103   4.133   7.589   6.437
15348SOL    HW258104   4.117   7.513   6.293
15349SOL     OW58105   4.045   7.618   6.772
15349SOL    HW158106   4.026   7.520   6.782
15349SOL    HW258107   4.117   7.630   6.703
15350SOL     OW58108   4.719   8.227   6.387
15350SOL    HW158109   4.621   8.221   6.407
15350SOL    HW258110   4.762   8.138   6.404
15351SOL     OW58111   3.888   8.851   5.923
15351SOL    HW158112   3.922   8.761   5.952
15351SOL    HW258113   3.933   8.878   5.838
15352SOL     OW58114   3.898   8.963   6.177
15352SOL    HW158115   3.805   8.983   6.208
15352SOL    HW258116   3.894   8.932   6.081
15353SOL     OW58117   4.175   8.348   5.553
15353SOL    HW158118   4.148   8.390   5.466
15353SOL    HW258119   4.142   8.405   5.628
15354SOL     OW58120   4.663   8.585   6.875
15354SOL    HW158121   4.754   8.626   6.864
15354SOL    HW258122   4.616   8.585   6.786
15355SOL     OW58123   3.809   8.182   5.790
15355SOL    HW158124   3.850   8.205   5.878
15355SOL    HW258125   3.723   8.133   5.806
15356SOL     OW58126   5.255   8.261   5.959
15356SOL    HW158127   5.316   8.185   5.940
15356SOL    HW258128   5.273   8.336   5.896
15357SOL     OW58129   4.552   9.231   6.528
15357SOL    HW158130   4.603   9.146   6.517
15357SOL    HW258131   4.469   9.214   6.581
15358SOL     OW58132   4.439   8.298   5.616
15358SOL    HW158133   4.457   8.203   5.643
15358SOL    HW258134   4.344   8.307   5.588
15359SOL     OW58135   5.053   7.826   5.990
15359SOL    HW158136   5.003   7.885   5.927
15359SOL    HW258137   5.151   7.829   5.967
15360SOL     OW58138   3.959   8.044   7.001
15360SOL    HW158139   3.984   7.967   6.942
15360SOL    HW258140   3.925   8.010   7.088
15361SOL     OW58141   3.881   7.704   6.980
15361SOL    HW158142   3.946   7.672   6.912
15361SOL    HW258143   3.788   7.684   6.950
15362SOL     OW58144   5.336   7.796   5.984
15362SOL    HW158145   5.428   7.758   5.975
15362SOL    HW258146   5.314   7.807   6.081
15363SOL     OW58147   4.602   8.956   6.507
15363SOL    HW158148   4.661   8.917   6.437
15363SOL    HW258149   4.506   8.949   6.478
15364SOL     OW58150   4.508   7.767   5.785
15364SOL    HW158151   4.434   7.761   5.853
15364SOL    HW258152   4.596   7.759   5.832
15365SOL     OW58153   4.651   8.656   5.696
15365SOL    HW158154   4.705   8.645   5.779
15365SOL    HW258155   4.708   8.639   5.616
15366SOL     OW58156   4.813   8.301   6.147
15366SOL    HW158157   4.782   8.272   6.237
15366SOL    HW258158   4.737   8.341   6.096
15367SOL     OW58159   4.498   9.042   7.204
15367SOL    HW158160   4.453   8.985   7.135
15367SOL    HW258161   4.506   8.992   7.290
15368SOL     OW58162   5.040   8.201   6.335
15368SOL    HW158163   4.986   8.122   6.365
15368SOL    HW258164   4.978   8.273   6.302
15369SOL     OW58165   4.011   8.462   6.439
15369SOL    HW158166   3.916   8.490   6.447
15369SOL    HW258167   4.050   8.447   6.530
15370SOL     OW58168   4.573   8.401   6.056
15370SOL    HW158169   4.523   8.333   6.002
15370SOL    HW258170   4.521   8.424   6.138
15371SOL     OW58171   4.879   8.772   6.952
15371SOL    HW158172   4.943   8.848   6.946
15371SOL    HW258173   4.792   8.804   6.989
15372SOL     OW58174   4.420   8.160   6.958
15372SOL    HW158175   4.456   8.253   6.946
15372SOL    HW258176   4.455   8.121   7.043
15373SOL     OW58177   3.764   9.198   6.944
15373SOL    HW158178   3.727   9.290   6.938
15373SOL    HW258179   3.746   9.160   7.035
15374SOL     OW58180   4.424   8.204   5.924
15374SOL    HW158181   4.327   8.225   5.911
15374SOL    HW258182   4.459   8.157   5.843
15375SOL     OW58183   4.014   9.204   5.675
15375SOL    HW158184   4.111   9.225   5.672
15375SOL    HW258185   3.987   9.181   5.769
15376SOL     OW58186   4.970   9.170   6.699
15376SOL    HW158187   4.990   9.188   6.603
15376SOL    HW258188   4.888   9.112   6.706
15377SOL     OW58189   3.749   8.533   6.506
15377SOL    HW158190   3.667   8.538   6.449
15377SOL    HW258191   3.736   8.464   6.578
15378SOL     OW58192   4.404   7.478   5.956
15378SOL    HW158193   4.432   7.469   5.860
15378SOL    HW258194   4.369   7.570   5.972
15379SOL     OW58195   3.719   8.559   6.034
15379SOL    HW158196   3.810   8.595   6.058
15379SOL    HW258197   3.718   8.532   5.938
15380SOL     OW58198   5.347   7.635   7.129
15380SOL    HW158199   5.313   7.723   7.163
15380SOL    HW258200   5.414   7.598   7.193
15381SOL     OW58201   4.963   7.614   6.440
15381SOL    HW158202   4.983   7.684   6.371
15381SOL    HW258203   5.002   7.643   6.528
15382SOL     OW58204   5.169   7.404   5.738
15382SOL    HW158205   5.259   7.367   5.711
15382SOL    HW258206   5.099   7.336   5.717
15383SOL     OW58207   5.246   7.372   7.170
15383SOL    HW158208   5.298   7.450   7.134
15383SOL    HW258209   5.167   7.406   7.221
15384SOL     OW58210   4.399   7.708   6.248
15384SOL    HW158211   4.399   7.636   6.318
15384SOL    HW258212   4.480   7.765   6.259
15385SOL     OW58213   5.232   7.441   6.009
15385SOL    HW158214   5.222   7.413   5.914
15385SOL    HW258215   5.149   7.487   6.040
15386SOL     OW58216   4.279   8.772   7.326
15386SOL    HW158217   4.232   8.836   7.264
15386SOL    HW258218   4.361   8.816   7.363
15387SOL     OW58219   4.109   8.493   7.197
15387SOL    HW158220   4.167   8.477   7.117
15387SOL    HW258221   4.110   8.590   7.219
15388SOL     OW58222   3.822   8.754   6.657
15388SOL    HW158223   3.799   8.680   6.594
15388SOL    HW258224   3.749   8.764   6.725
15389SOL     OW58225   4.841   7.979   6.402
15389SOL    HW158226   4.909   7.921   6.358
15389SOL    HW258227   4.810   7.936   6.487
15390SOL     OW58228   5.499   8.054   7.211
15390SOL    HW158229   5.485   8.152   7.193
15390SOL    HW258230   5.591   8.040   7.248
15391SOL     OW58231   5.298   7.874   7.254
15391SOL    HW158232   5.372   7.938   7.235
15391SOL    HW258233   5.250   7.901   7.337
15392SOL     OW58234   4.979   8.223   5.941
15392SOL    HW158235   4.926   8.255   6.020
15392SOL    HW258236   5.076   8.240   5.957
15393SOL     OW58237   5.284   8.260   6.231
15393SOL    HW158238   5.267   8.261   6.132
15393SOL    HW258239   5.198   8.240   6.279
15394SOL     OW58240   5.427   8.299   7.107
15394SOL    HW158241   5.398   8.247   7.027
15394SOL    HW258242   5.441   8.394   7.082
15395SOL     OW58243   5.296   7.656   5.712
15395SOL    HW158244   5.310   7.701   5.801
15395SOL    HW258245   5.238   7.576   5.725
15396SOL     OW58246   4.394   8.907   6.987
15396SOL    HW158247   4.330   8.982   6.967
15396SOL    HW258248   4.374   8.829   6.927
15397SOL     OW58249   3.855   7.689   7.252
15397SOL    HW158250   3.867   7.692   7.153
15397SOL    HW258251   3.762   7.659   7.273
15398SOL     OW58252   3.722   9.081   7.191
15398SOL    HW158253   3.808   9.093   7.241
15398SOL    HW258254   3.645   9.093   7.255
15399SOL     OW58255   5.056   8.983   7.001
15399SOL    HW158256   5.000   9.044   7.057
15399SOL    HW258257   5.112   9.036   6.938
15400SOL     OW58258   3.987   7.996   5.660
15400SOL    HW158259   4.075   8.029   5.626
15400SOL    HW258260   3.939   8.072   5.704
15401SOL     OW58261   5.480   7.730   6.903
15401SOL    HW158262   5.425   7.685   6.973
15401SOL    HW258263   5.458   7.691   6.813
15402SOL     OW58264   4.107   9.149   6.162
15402SOL    HW158265   4.035   9.082   6.179
15402SOL    HW258266   4.196   9.103   6.163
15403SOL     OW58267   4.064   8.682   6.774
15403SOL    HW158268   4.055   8.705   6.871
15403SOL    HW258269   3.984   8.714   6.724
15404SOL     OW58270   4.847   9.017   7.382
15404SOL    HW158271   4.815   8.925   7.363
15404SOL    HW258272   4.870   9.063   7.295
15405SOL     OW58273   4.395   8.658   6.023
15405SOL    HW158274   4.415   8.599   5.944
15405SOL    HW258275   4.404   8.604   6.107
15406SOL     OW58276   4.040   8.238   6.279
15406SOL    HW158277   4.049   8.321   6.334
15406SOL    HW258278   4.125   8.185   6.285
15407SOL     OW58279   3.984   7.727   5.700
15407SOL    HW158280   4.034   7.680   5.627
15407SOL    HW258281   3.988   7.826   5.684
15408SOL     OW58282   4.154   8.522   5.788
15408SOL    HW158283   4.254   8.525   5.790
15408SOL    HW258284   4.119   8.607   5.747
15409SOL     OW58285   4.797   8.087   5.581
15409SOL    HW158286   4.745   8.146   5.519
15409SOL    HW258287   4.863   8.033   5.528
15410SOL     OW58288   4.534   8.052   5.713
15410SOL    HW158289   4.626   8.060   5.674
15410SOL    HW258290   4.510   7.955   5.721
15411SOL     OW58291   4.997   7.568   6.053
15411SOL    HW158292   4.908   7.568   6.100
15411SOL    HW258293   5.020   7.661   6.025
15412SOL     OW58294   3.762   7.568   5.715
15412SOL    HW158295   3.798   7.477   5.736
15412SOL    HW258296   3.838   7.634   5.712
15413SOL     OW58297   4.108   8.422   6.691
15413SOL    HW158298   4.069   8.360   6.759
15413SOL    HW258299   4.101   8.516   6.725
15414SOL     OW58300   5.324   8.436   5.759
15414SOL    HW158301   5.420   8.460   5.770
15414SOL    HW258302   5.303   8.423   5.662
15415SOL     OW58303   4.321   7.986   6.763
15415SOL    HW158304   4.348   8.051   6.834
15415SOL    HW258305   4.224   7.962   6.775
15416SOL     OW58306   4.534   8.412   7.046
15416SOL    HW158307   4.589   8.469   6.985
15416SOL    HW258308   4.509   8.464   7.127
15417SOL     OW58309   4.751   7.637   6.170
15417SOL    HW158310   4.708   7.724   6.193
15417SOL    HW258311   4.726   7.567   6.237
15418SOL     OW58312   4.905   9.152   7.152
15418SOL    HW158313   4.821   9.181   7.106
15418SOL    HW258314   4.950   9.231   7.193
15419SOL     OW58315   4.431   7.529   6.457
15419SOL    HW158316   4.402   7.444   6.500
15419SOL    HW258317   4.530   7.526   6.441
15420SOL     OW58318   3.989   9.148   6.793
15420SOL    HW158319   3.953   9.101   6.713
15420SOL    HW258320   3.914   9.167   6.857
15421SOL     OW58321   4.665   8.610   6.389
15421SOL    HW158322   4.698   8.699   6.359
15421SOL    HW258323   4.739   8.543   6.384
15422SOL     OW58324   4.340   8.408   6.526
15422SOL    HW158325   4.378   8.317   6.508
15422SOL    HW258326   4.262   8.400   6.588
15423SOL     OW58327   3.711   8.349   6.706
15423SOL    HW158328   3.785   8.326   6.768
15423SOL    HW258329   3.666   8.265   6.674
15424SOL     OW58330   3.990   7.440   6.012
15424SOL    HW158331   4.003   7.538   5.997
15424SOL    HW258332   4.054   7.408   6.081
15425SOL     OW58333   4.331   8.013   7.289
15425SOL    HW158334   4.272   8.062   7.224
15425SOL    HW258335   4.423   8.052   7.286
15426SOL     OW58336   3.768   8.477   5.776
15426SOL    HW158337   3.801   8.385   5.759
15426SOL    HW258338   3.811   8.541   5.712
15427SOL     OW58339   5.458   7.603   6.360
15427SOL    HW158340   5.465   7.632   6.456
15427SOL    HW258341   5.547   7.616   6.316
15428SOL     OW58342   4.520   8.589   6.632
15428SOL    HW158343   4.455   8.519   6.601
15428SOL    HW258344   4.579   8.616   6.556
15429SOL     OW58345   4.888   7.987   5.837
15429SOL    HW158346   4.917   8.072   5.882
15429SOL    HW258347   4.855   8.007   5.745
15430SOL     OW58348   5.199   8.852   7.198
15430SOL    HW158349   5.138   8.775   7.217
15430SOL    HW258350   5.159   8.909   7.126
15431SOL     OW58351   3.921   8.279   6.874
15431SOL    HW158352   3.933   8.190   6.917
15431SOL    HW258353   3.908   8.349   6.945
15432SOL     OW58354   4.512   8.859   5.574
15432SOL    HW158355   4.468   8.916   5.644
15432SOL    HW258356   4.568   8.789   5.619
15433SOL     OW58357   4.312   9.124   6.613
15433SOL    HW158358   4.316   9.069   6.530
15433SOL    HW258359   4.227   9.105   6.662
15434SOL     OW58360   4.429   8.516   6.281
15434SOL    HW158361   4.513   8.562   6.308
15434SOL    HW258362   4.390   8.467   6.360
15435SOL     OW58363   4.606   8.838   6.056
15435SOL    HW158364   4.676   8.781   6.013
15435SOL    HW258365   4.516   8.793   6.048
15436SOL     OW58366   3.802   8.192   6.412
15436SOL    HW158367   3.891   8.205   6.367
15436SOL    HW258368   3.730   8.230   6.355
15437SOL     OW58369   3.723   8.302   7.348
15437SOL    HW158370   3.624   8.303   7.337
15437SOL    HW258371   3.746   8.248   7.429
15438SOL     OW58372   4.654   9.211   7.045
15438SOL    HW158373   4.616   9.132   7.094
15438SOL    HW258374   4.595   9.291   7.061
15439SOL     OW58375   4.264   7.749   7.319
15439SOL    HW158376   4.317   7.702   7.249
15439SOL    HW258377   4.289   7.846   7.319
15440SOL     OW58378   4.154   8.271   5.905
15440SOL    HW158379   4.148   8.361   5.862
15440SOL    HW258380   4.069   8.251   5.953
15441SOL     OW58381   5.107   7.615   6.898
15441SOL    HW158382   5.155   7.602   6.985
15441SOL    HW258383   5.038   7.543   6.887
15442SOL     OW58384   5.034   7.480   7.311
15442SOL    HW158385   5.069   7.437   7.394
15442SOL    HW258386   5.018   7.577   7.327
15443SOL     OW58387   4.137   8.962   7.178
15443SOL    HW158388   4.070   9.012   7.233
15443SOL    HW258389   4.169   9.020   7.103
15444SOL     OW58390   5.460   8.806   7.120
15444SOL    HW158391   5.507   8.894   7.122
15444SOL    HW258392   5.365   8.819   7.149
15445SOL     OW58393   4.746   7.872   6.644
15445SOL    HW158394   4.774   7.927   6.722
15445SOL    HW258395   4.750   7.775   6.669
15446SOL     OW58396   4.143   8.857   6.231
15446SOL    HW158397   4.149   8.757   6.236
15446SOL    HW258398   4.047   8.884   6.225
15447SOL     OW58399   4.729   9.044   6.736
15447SOL    HW158400   4.661   9.065   6.806
15447SOL    HW258401   4.685   9.000   6.658
15448SOL     OW58402   3.962   9.123   7.320
15448SOL    HW158403   4.000   9.213   7.295
15448SOL    HW258404   3.969   9.111   7.419
15449SOL     OW58405   3.821   8.670   7.195
15449SOL    HW158406   3.809   8.575   7.167
15449SOL    HW258407   3.744   8.724   7.162
15450SOL     OW58408   3.862   9.016   6.584
15450SOL    HW158409   3.852   8.920   6.608
15450SOL    HW258410   3.868   9.026   6.485
15451SOL     OW58411   4.707   7.511   6.426
15451SOL    HW158412   4.801   7.547   6.433
15451SOL    HW258413   4.693   7.443   6.498
15452SOL     OW58414   4.745   8.613   5.957
15452SOL    HW158415   4.840   8.602   5.986
15452SOL    HW258416   4.690   8.536   5.990
15453SOL     OW58417   5.311   7.819   6.265
15453SOL    HW158418   5.350   7.899   6.311
15453SOL    HW258419   5.359   7.736   6.295
15454SOL     OW58420   4.429   8.521   5.780
15454SOL    HW158421   4.504   8.580   5.752
15454SOL    HW258422   4.440   8.431   5.739
15455SOL     OW58423   4.484   7.500   5.688
15455SOL    HW158424   4.567   7.445   5.681
15455SOL    HW258425   4.509   7.595   5.707
15456SOL     OW58426   4.248   8.063   6.283
15456SOL    HW158427   4.208   7.983   6.329
15456SOL    HW258428   4.312   8.032   6.213
15457SOL     OW58429   4.272   8.481   6.978
15457SOL    HW158430   4.362   8.445   7.006
15457SOL    HW258431   4.285   8.564   6.925
15458SOL     OW58432   5.462   8.552   7.008
15458SOL    HW158433   5.450   8.644   7.045
15458SOL    HW258434   5.520   8.556   6.927
15459SOL     OW58435   3.888   8.638   5.597
15459SOL    HW158436   3.856   8.649   5.503
15459SOL    HW258437   3.960   8.704   5.616
15460SOL     OW58438   4.363   8.995   5.752
15460SOL    HW158439   4.327   9.084   5.726
15460SOL    HW258440   4.315   8.961   5.833
15461SOL     OW58441   4.996   8.658   7.167
15461SOL    HW158442   5.029   8.564   7.153
15461SOL    HW258443   4.959   8.693   7.081
15462SOL     OW58444   4.210   9.115   6.958
15462SOL    HW158445   4.256   9.204   6.960
15462SOL    HW258446   4.129   9.121   6.900
15463SOL     OW58447   3.898   7.963   7.258
15463SOL    HW158448   3.893   7.864   7.270
15463SOL    HW258449   3.964   8.001   7.322
15464SOL     OW58450   3.672   8.327   6.177
15464SOL    HW158451   3.690   8.416   6.135
15464SOL    HW258452   3.573   8.317   6.192
15465SOL     OW58453   4.186   8.151   7.112
15465SOL    HW158454   4.098   8.122   7.072
15465SOL    HW258455   4.248   8.179   7.039
15466SOL     OW58456   5.335   8.535   6.185
15466SOL    HW158457   5.427   8.543   6.147
15466SOL    HW258458   5.321   8.442   6.220
15467SOL     OW58459   4.492   7.944   6.559
15467SOL    HW158460   4.580   7.909   6.591
15467SOL    HW258461   4.429   7.952   6.637
15468SOL     OW58462   4.338   8.701   6.816
15468SOL    HW158463   4.244   8.703   6.779
15468SOL    HW258464   4.401   8.672   6.743
15469SOL     OW58465   3.856   8.079   6.662
15469SOL    HW158466   3.896   8.151   6.719
15469SOL    HW258467   3.836   8.116   6.571
15470SOL     OW58468   4.030   8.753   7.035
15470SOL    HW158469   4.074   8.830   7.080
15470SOL    HW258470   3.952   8.722   7.090
15471SOL     OW58471   5.331   9.072   7.327
15471SOL    HW158472   5.285   8.985   7.309
15471SOL    HW258473   5.306   9.138   7.255
15472SOL     OW58474   5.014   8.585   6.015
15472SOL    HW158475   5.099   8.585   6.067
15472SOL    HW258476   5.035   8.578   5.917
15473SOL     OW58477   4.314   7.743   5.995
15473SOL    HW158478   4.215   7.731   5.983
15473SOL    HW258479   4.338   7.726   6.090
15474SOL     OW58480   5.302   7.383   6.271
15474SOL    HW158481   5.278   7.405   6.177
15474SOL    HW258482   5.363   7.453   6.308
15475SOL     OW58483   4.449   8.175   6.432
15475SOL    HW158484   4.471   8.093   6.485
15475SOL    HW258485   4.376   8.153   6.367
15476SOL     OW58486   5.035   7.826   6.273
15476SOL    HW158487   5.012   7.829   6.176
15476SOL    HW258488   5.134   7.829   6.284
15477SOL     OW58489   4.780   8.833   8.120
15477SOL    HW158490   4.871   8.873   8.129
15477SOL    HW258491   4.745   8.850   8.028
15478SOL     OW58492   5.344   8.576   7.938
15478SOL    HW158493   5.303   8.629   7.864
15478SOL    HW258494   5.442   8.565   7.920
15479SOL     OW58495   5.309   7.994   8.786
15479SOL    HW158496   5.228   7.968   8.839
15479SOL    HW258497   5.389   7.993   8.845
15480SOL     OW58498   4.059   7.600   7.403
15480SOL    HW158499   3.980   7.626   7.347
15480SOL    HW258500   4.138   7.655   7.376
15481SOL     OW58501   5.029   8.935   8.190
15481SOL    HW158502   5.035   9.033   8.212
15481SOL    HW258503   5.121   8.896   8.187
15482SOL     OW58504   4.658   8.283   9.129
15482SOL    HW158505   4.619   8.293   9.037
15482SOL    HW258506   4.586   8.297   9.197
15483SOL     OW58507   4.264   8.868   7.784
15483SOL    HW158508   4.217   8.893   7.869
15483SOL    HW258509   4.337   8.802   7.804
15484SOL     OW58510   4.231   7.426   7.543
15484SOL    HW158511   4.326   7.457   7.545
15484SOL    HW258512   4.175   7.492   7.494
15485SOL     OW58513   5.267   8.425   8.907
15485SOL    HW158514   5.172   8.444   8.883
15485SOL    HW258515   5.327   8.454   8.831
15486SOL     OW58516   5.109   8.432   8.578
15486SOL    HW158517   5.061   8.421   8.666
15486SOL    HW258518   5.149   8.524   8.574
15487SOL     OW58519   4.681   8.754   8.833
15487SOL    HW158520   4.596   8.805   8.830
15487SOL    HW258521   4.669   8.666   8.788
15488SOL     OW58522   4.178   8.617   8.081
15488SOL    HW158523   4.127   8.567   8.151
15488SOL    HW258524   4.274   8.589   8.084
15489SOL     OW58525   4.414   8.018   7.960
15489SOL    HW158526   4.441   8.091   7.898
15489SOL    HW258527   4.392   7.936   7.907
15490SOL     OW58528   4.969   7.903   9.169
15490SOL    HW158529   5.011   7.854   9.245
15490SOL    HW258530   4.892   7.850   9.133
15491SOL     OW58531   4.122   8.782   7.557
15491SOL    HW158532   4.179   8.785   7.475
15491SOL    HW258533   4.172   8.821   7.634
15492SOL     OW58534   4.239   7.700   8.407
15492SOL    HW158535   4.295   7.783   8.402
15492SOL    HW258536   4.288   7.624   8.365
15493SOL     OW58537   4.030   8.130   7.898
15493SOL    HW158538   4.064   8.167   7.984
15493SOL    HW258539   3.932   8.113   7.906
15494SOL     OW58540   4.517   9.088   7.989
15494SOL    HW158541   4.569   9.011   7.952
15494SOL    HW258542   4.520   9.164   7.924
15495SOL     OW58543   5.472   8.975   7.796
15495SOL    HW158544   5.565   8.942   7.781
15495SOL    HW258545   5.445   9.033   7.719
15496SOL     OW58546   4.722   7.656   7.752
15496SOL    HW158547   4.797   7.594   7.730
15496SOL    HW258548   4.712   7.662   7.852
15497SOL     OW58549   3.865   8.397   8.975
15497SOL    HW158550   3.957   8.427   9.000
15497SOL    HW258551   3.819   8.359   9.056
15498SOL     OW58552   4.098   8.073   7.428
15498SOL    HW158553   4.102   8.173   7.426
15498SOL    HW258554   4.183   8.036   7.391
15499SOL     OW58555   4.348   9.031   8.187
15499SOL    HW158556   4.409   9.056   8.112
15499SOL    HW258557   4.268   8.984   8.150
15500SOL     OW58558   4.678   7.972   8.944
15500SOL    HW158559   4.706   7.895   9.000
15500SOL    HW258560   4.757   8.009   8.895
15501SOL     OW58561   5.288   8.849   8.220
15501SOL    HW158562   5.305   8.885   8.312
15501SOL    HW258563   5.351   8.892   8.156
15502SOL     OW58564   4.009   8.644   7.860
15502SOL    HW158565   4.066   8.638   7.942
15502SOL    HW258566   4.050   8.590   7.787
15503SOL     OW58567   4.051   7.905   8.673
15503SOL    HW158568   4.047   7.808   8.652
15503SOL    HW258569   3.975   7.952   8.628
15504SOL     OW58570   5.113   8.133   8.635
15504SOL    HW158571   5.141   8.228   8.619
15504SOL    HW258572   5.188   8.083   8.678
15505SOL     OW58573   4.072   7.677   7.856
15505SOL    HW158574   4.019   7.715   7.931
15505SOL    HW258575   4.024   7.693   7.770
15506SOL     OW58576   5.243   9.138   8.706
15506SOL    HW158577   5.167   9.143   8.641
15506SOL    HW258578   5.329   9.139   8.656
15507SOL     OW58579   5.451   8.010   8.552
15507SOL    HW158580   5.547   8.026   8.577
15507SOL    HW258581   5.397   7.995   8.635
15508SOL     OW58582   5.503   9.138   8.577
15508SOL    HW158583   5.540   9.175   8.663
15508SOL    HW258584   5.579   9.115   8.516
15509SOL     OW58585   4.632   7.930   8.106
15509SOL    HW158586   4.689   8.008   8.133
15509SOL    HW258587   4.556   7.963   8.050
15510SOL     OW58588   4.745   7.752   9.124
15510SOL    HW158589   4.772   7.747   9.220
15510SOL    HW258590   4.668   7.691   9.107
15511SOL     OW58591   4.681   9.199   7.524
15511SOL    HW158592   4.734   9.133   7.471
15511SOL    HW258593   4.676   9.169   7.619
15512SOL     OW58594   4.412   7.403   9.129
15512SOL    HW158595   4.438   7.314   9.091
15512SOL    HW258596   4.489   7.443   9.177
15513SOL     OW58597   5.398   8.097   8.302
15513SOL    HW158598   5.337   8.176   8.306
15513SOL    HW258599   5.405   8.056   8.393
15514SOL     OW58600   4.789   8.719   9.120
15514SOL    HW158601   4.832   8.629   9.112
15514SOL    HW258602   4.736   8.738   9.037
15515SOL     OW58603   4.432   8.536   9.101
15515SOL    HW158604   4.371   8.615   9.101
15515SOL    HW258605   4.445   8.503   9.194
15516SOL     OW58606   4.996   7.361   8.230
15516SOL    HW158607   4.907   7.405   8.245
15516SOL    HW258608   5.056   7.425   8.182
15517SOL     OW58609   3.767   8.101   7.968
15517SOL    HW158610   3.768   8.033   8.041
15517SOL    HW258611   3.743   8.190   8.006
15518SOL     OW58612   4.050   7.598   8.207
15518SOL    HW158613   4.105   7.643   8.277
15518SOL    HW258614   4.101   7.520   8.170
15519SOL     OW58615   4.056   7.631   8.609
15519SOL    HW158616   4.040   7.532   8.612
15519SOL    HW258617   4.121   7.652   8.537
15520SOL     OW58618   4.700   8.310   8.380
15520SOL    HW158619   4.772   8.379   8.377
15520SOL    HW258620   4.703   8.256   8.295
15521SOL     OW58621   3.895   8.888   7.763
15521SOL    HW158622   3.929   8.798   7.789
15521SOL    HW258623   3.950   8.924   7.688
15522SOL     OW58624   5.148   8.710   8.604
15522SOL    HW158625   5.105   8.743   8.520
15522SOL    HW258626   5.086   8.723   8.681
15523SOL     OW58627   3.884   8.968   8.028
15523SOL    HW158628   3.788   8.980   8.055
15523SOL    HW258629   3.888   8.948   7.930
15524SOL     OW58630   5.416   8.758   8.657
15524SOL    HW158631   5.435   8.798   8.746
15524SOL    HW258632   5.318   8.740   8.648
15525SOL     OW58633   4.148   8.344   7.427
15525SOL    HW158634   4.129   8.389   7.339
15525SOL    HW258635   4.126   8.407   7.501
15526SOL     OW58636   4.638   8.516   8.695
15526SOL    HW158637   4.682   8.428   8.678
15526SOL    HW258638   4.587   8.543   8.613
15527SOL     OW58639   3.773   8.172   7.587
15527SOL    HW158640   3.845   8.105   7.601
15527SOL    HW258641   3.693   8.147   7.642
15528SOL     OW58642   4.629   9.134   8.462
15528SOL    HW158643   4.624   9.059   8.396
15528SOL    HW258644   4.537   9.155   8.495
15529SOL     OW58645   4.419   8.300   7.456
15529SOL    HW158646   4.448   8.215   7.500
15529SOL    HW258647   4.319   8.301   7.449
15530SOL     OW58648   4.007   8.045   8.912
15530SOL    HW158649   4.017   7.972   8.844
15530SOL    HW258650   3.957   8.011   8.991
15531SOL     OW58651   3.865   7.678   8.813
15531SOL    HW158652   3.934   7.659   8.744
15531SOL    HW258653   3.774   7.659   8.775
15532SOL     OW58654   4.698   8.252   8.643
15532SOL    HW158655   4.699   8.260   8.543
15532SOL    HW258656   4.619   8.197   8.671
15533SOL     OW58657   4.594   8.934   8.292
15533SOL    HW158658   4.659   8.897   8.226
15533SOL    HW258659   4.505   8.947   8.248
15534SOL     OW58660   4.520   7.817   7.667
15534SOL    HW158661   4.445   7.790   7.727
15534SOL    HW258662   4.603   7.768   7.694
15535SOL     OW58663   4.655   8.689   7.544
15535SOL    HW158664   4.714   8.649   7.614
15535SOL    HW258665   4.708   8.705   7.461
15536SOL     OW58666   5.454   9.004   8.066
15536SOL    HW158667   5.408   9.089   8.091
15536SOL    HW258668   5.453   8.993   7.967
15537SOL     OW58669   4.754   8.192   8.129
15537SOL    HW158670   4.850   8.210   8.151
15537SOL    HW258671   4.725   8.252   8.055
15538SOL     OW58672   4.524   9.027   9.014
15538SOL    HW158673   4.483   8.972   8.941
15538SOL    HW258674   4.524   8.974   9.099
15539SOL     OW58675   4.994   8.279   8.244
15539SOL    HW158676   5.093   8.276   8.254
15539SOL    HW258677   4.961   8.368   8.274
15540SOL     OW58678   4.032   8.477   8.268
15540SOL    HW158679   3.939   8.514   8.263
15540SOL    HW258680   4.053   8.454   8.363
15541SOL     OW58681   4.644   8.374   7.939
15541SOL    HW158682   4.591   8.315   7.877
15541SOL    HW258683   4.581   8.425   7.998
15542SOL     OW58684   4.958   8.751   8.800
15542SOL    HW158685   5.000   8.836   8.831
15542SOL    HW258686   4.859   8.755   8.817
15543SOL     OW58687   3.731   7.724   7.822
15543SOL    HW158688   3.793   7.728   7.744
15543SOL    HW258689   3.783   7.735   7.907
15544SOL     OW58690   5.385   9.157   7.595
15544SOL    HW158691   5.467   9.212   7.581
15544SOL    HW258692   5.354   9.122   7.507
15545SOL     OW58693   4.505   8.114   8.781
15545SOL    HW158694   4.487   8.198   8.832
15545SOL    HW258695   4.563   8.053   8.835
15546SOL     OW58696   3.765   9.205   8.780
15546SOL    HW158697   3.723   9.296   8.782
15546SOL    HW258698   3.747   9.157   8.866
15547SOL     OW58699   4.482   8.214   7.782
15547SOL    HW158700   4.386   8.241   7.770
15547SOL    HW258701   4.513   8.164   7.701
15548SOL     OW58702   4.010   7.961   8.319
15548SOL    HW158703   4.064   7.938   8.238
15548SOL    HW258704   4.062   7.937   8.401
15549SOL     OW58705   4.002   9.149   7.594
15549SOL    HW158706   4.088   9.186   7.560
15549SOL    HW258707   3.989   9.176   7.689
15550SOL     OW58708   5.026   9.134   8.535
15550SOL    HW158709   5.051   9.149   8.439
15550SOL    HW258710   4.959   9.060   8.541
15551SOL     OW58711   3.770   8.572   8.323
15551SOL    HW158712   3.680   8.571   8.279
15551SOL    HW258713   3.772   8.506   8.397
15552SOL     OW58714   4.433   7.470   7.823
15552SOL    HW158715   4.456   7.466   7.726
15552SOL    HW258716   4.405   7.564   7.847
15553SOL     OW58717   3.749   8.541   7.894
15553SOL    HW158718   3.835   8.591   7.905
15553SOL    HW258719   3.744   8.503   7.802
15554SOL     OW58720   5.141   7.355   7.526
15554SOL    HW158721   5.236   7.338   7.549
15554SOL    HW258722   5.086   7.275   7.550
15555SOL     OW58723   5.331   7.233   8.866
15555SOL    HW158724   5.308   7.256   8.771
15555SOL    HW258725   5.366   7.313   8.913
15556SOL     OW58726   4.399   7.753   8.126
15556SOL    HW158727   4.396   7.665   8.173
15556SOL    HW258728   4.478   7.806   8.160
15557SOL     OW58729   4.925   8.071   8.434
15557SOL    HW158730   4.943   8.135   8.359
15557SOL    HW258731   4.995   8.081   8.504
15558SOL     OW58732   4.270   8.769   9.127
15558SOL    HW158733   4.224   8.837   9.070
15558SOL    HW258734   4.355   8.806   9.162
15559SOL     OW58735   4.118   8.491   9.030
15559SOL    HW158736   4.171   8.471   8.948
15559SOL    HW258737   4.126   8.588   9.052
15560SOL     OW58738   3.824   8.788   8.485
15560SOL    HW158739   3.809   8.720   8.413
15560SOL    HW258740   3.745   8.787   8.547
15561SOL     OW58741   5.534   8.016   8.944
15561SOL    HW158742   5.530   8.115   8.943
15561SOL    HW258743   5.610   7.986   9.003
15562SOL     OW58744   5.506   8.285   8.936
15562SOL    HW158745   5.410   8.315   8.931
15562SOL    HW258746   5.561   8.339   8.872
15563SOL     OW58747   4.421   8.883   8.802
15563SOL    HW158748   4.361   8.959   8.778
15563SOL    HW258749   4.388   8.799   8.758
15564SOL     OW58750   3.826   7.683   9.081
15564SOL    HW158751   3.839   7.681   8.982
15564SOL    HW258752   3.733   7.652   9.103
15565SOL     OW58753   3.727   9.058   9.011
15565SOL    HW158754   3.816   9.075   9.054
15565SOL    HW258755   3.656   9.060   9.081
15566SOL     OW58756   3.879   7.738   8.049
15566SOL    HW158757   3.839   7.814   8.101
15566SOL    HW258758   3.939   7.685   8.110
15567SOL     OW58759   5.084   8.980   8.876
15567SOL    HW158760   5.021   9.044   8.920
15567SOL    HW258761   5.145   9.030   8.814
15568SOL     OW58762   3.977   7.988   7.654
15568SOL    HW158763   4.031   8.018   7.575
15568SOL    HW258764   4.011   8.030   7.737
15569SOL     OW58765   4.029   9.169   8.142
15569SOL    HW158766   3.966   9.101   8.103
15569SOL    HW258767   4.093   9.200   8.071
15570SOL     OW58768   4.054   8.686   8.607
15570SOL    HW158769   4.048   8.710   8.704
15570SOL    HW258770   3.979   8.728   8.558
15571SOL     OW58771   4.892   8.968   9.209
15571SOL    HW158772   4.855   8.878   9.186
15571SOL    HW258773   4.901   9.023   9.126
15572SOL     OW58774   4.452   8.673   7.855
15572SOL    HW158775   4.454   8.610   7.777
15572SOL    HW258776   4.453   8.620   7.940
15573SOL     OW58777   4.098   8.231   8.144
15573SOL    HW158778   4.083   8.322   8.182
15573SOL    HW258779   4.183   8.193   8.179
15574SOL     OW58780   3.926   7.720   7.623
15574SOL    HW158781   3.978   7.681   7.546
15574SOL    HW258782   3.939   7.819   7.625
15575SOL     OW58783   3.769   7.943   8.193
15575SOL    HW158784   3.692   7.989   8.237
15575SOL    HW258785   3.851   7.953   8.249
15576SOL     OW58786   4.169   8.526   7.649
15576SOL    HW158787   4.269   8.527   7.646
15576SOL    HW258788   4.134   8.612   7.610
15577SOL     OW58789   4.542   8.068   7.557
15577SOL    HW158790   4.627   8.067   7.504
15577SOL    HW258791   4.523   7.976   7.592
15578SOL     OW58792   5.077   7.954   8.921
15578SOL    HW158793   5.054   7.939   9.017
15578SOL    HW258794   5.004   8.004   8.876
15579SOL     OW58795   3.783   7.462   7.577
15579SOL    HW158796   3.855   7.398   7.603
15579SOL    HW258797   3.815   7.555   7.591
15580SOL     OW58798   4.082   8.422   8.535
15580SOL    HW158799   4.082   8.362   8.614
15580SOL    HW258800   4.077   8.518   8.565
15581SOL     OW58801   5.315   8.606   7.640
15581SOL    HW158802   5.397   8.550   7.626
15581SOL    HW258803   5.320   8.687   7.580
15582SOL     OW58804   4.300   8.022   8.611
15582SOL    HW158805   4.360   8.058   8.682
15582SOL    HW258806   4.215   7.989   8.652
15583SOL     OW58807   4.521   8.376   8.903
15583SOL    HW158808   4.571   8.429   8.835
15583SOL    HW258809   4.491   8.436   8.977
15584SOL     OW58810   4.868   8.453   9.076
15584SOL    HW158811   4.789   8.396   9.097
15584SOL    HW258812   4.951   8.408   9.108
15585SOL     OW58813   4.707   7.674   8.024
15585SOL    HW158814   4.687   7.766   8.057
15585SOL    HW258815   4.724   7.614   8.103
15586SOL     OW58816   4.907   9.148   8.999
15586SOL    HW158817   4.826   9.169   8.945
15586SOL    HW258818   4.951   9.234   9.027
15587SOL     OW58819   4.373   7.516   8.254
15587SOL    HW158820   4.313   7.460   8.196
15587SOL    HW258821   4.446   7.459   8.292
15588SOL     OW58822   4.005   9.195   8.641
15588SOL    HW158823   3.977   9.146   8.558
15588SOL    HW258824   3.927   9.203   8.703
15589SOL     OW58825   4.678   8.615   8.246
15589SOL    HW158826   4.714   8.696   8.200
15589SOL    HW258827   4.753   8.566   8.291
15590SOL     OW58828   4.344   8.378   8.322
15590SOL    HW158829   4.361   8.285   8.290
15590SOL    HW258830   4.269   8.376   8.388
15591SOL     OW58831   3.788   8.381   8.515
15591SOL    HW158832   3.876   8.383   8.561
15591SOL    HW258833   3.791   8.314   8.441
15592SOL     OW58834   3.990   7.412   7.895
15592SOL    HW158835   4.026   7.504   7.886
15592SOL    HW258836   3.891   7.416   7.912
15593SOL     OW58837   4.428   8.027   9.073
15593SOL    HW158838   4.372   8.080   9.009
15593SOL    HW258839   4.518   8.010   9.033
15594SOL     OW58840   3.783   8.451   7.633
15594SOL    HW158841   3.797   8.355   7.612
15594SOL    HW258842   3.833   8.508   7.568
15595SOL     OW58843   4.496   8.571   8.459
15595SOL    HW158844   4.450   8.492   8.417
15595SOL    HW258845   4.559   8.612   8.394
15596SOL     OW58846   5.241   8.843   9.054
15596SOL    HW158847   5.204   8.757   9.089
15596SOL    HW258848   5.175   8.886   8.992
15597SOL     OW58849   3.954   8.262   8.749
15597SOL    HW158850   3.981   8.180   8.800
15597SOL    HW258851   3.913   8.328   8.812
15598SOL     OW58852   4.492   8.897   7.444
15598SOL    HW158853   4.467   8.965   7.513
15598SOL    HW258854   4.553   8.829   7.484
15599SOL     OW58855   4.349   9.099   8.470
15599SOL    HW158856   4.334   9.062   8.378
15599SOL    HW258857   4.276   9.070   8.531
15600SOL     OW58858   4.459   8.523   8.108
15600SOL    HW158859   4.538   8.566   8.151
15600SOL    HW258860   4.413   8.463   8.173
15601SOL     OW58861   4.649   8.871   7.883
15601SOL    HW158862   4.710   8.888   7.806
15601SOL    HW258863   4.586   8.797   7.861
15602SOL     OW58864   3.841   8.223   8.297
15602SOL    HW158865   3.926   8.190   8.258
15602SOL    HW258866   3.784   8.264   8.226
15603SOL     OW58867   3.728   8.291   9.181
15603SOL    HW158868   3.629   8.299   9.177
15603SOL    HW258869   3.755   8.245   9.265
15604SOL     OW58870   4.673   9.191   8.852
15604SOL    HW158871   4.629   9.124   8.912
15604SOL    HW258872   4.603   9.249   8.810
15605SOL     OW58873   4.908   8.508   8.387
15605SOL    HW158874   4.922   8.607   8.388
15605SOL    HW258875   4.964   8.466   8.458
15606SOL     OW58876   4.225   7.775   9.186
15606SOL    HW158877   4.292   7.753   9.115
15606SOL    HW258878   4.228   7.874   9.204
15607SOL     OW58879   4.220   8.271   7.753
15607SOL    HW158880   4.184   8.359   7.722
15607SOL    HW258881   4.148   8.221   7.802
15608SOL     OW58882   5.252   8.341   8.336
15608SOL    HW158883   5.287   8.424   8.292
15608SOL    HW258884   5.216   8.364   8.426
15609SOL     OW58885   3.718   7.459   7.900
15609SOL    HW158886   3.626   7.420   7.890
15609SOL    HW258887   3.716   7.555   7.872
15610SOL     OW58888   4.919   7.502   9.130
15610SOL    HW158889   4.884   7.459   9.213
15610SOL    HW258890   4.874   7.590   9.117
15611SOL     OW58891   4.143   8.974   8.988
15611SOL    HW158892   4.080   9.033   9.039
15611SOL    HW258893   4.184   9.026   8.913
15612SOL     OW58894   5.471   8.859   8.907
15612SOL    HW158895   5.519   8.942   8.934
15612SOL    HW258896   5.388   8.848   8.962
15613SOL     OW58897   4.693   7.924   8.477
15613SOL    HW158898   4.772   7.978   8.445
15613SOL    HW258899   4.704   7.901   8.573
15614SOL     OW58900   4.152   8.888   8.044
15614SOL    HW158901   4.161   8.791   8.064
15614SOL    HW258902   4.055   8.914   8.048
15615SOL     OW58903   4.814   8.959   8.569
15615SOL    HW158904   4.777   8.912   8.649
15615SOL    HW258905   4.746   9.024   8.534
15616SOL     OW58906   3.964   9.136   9.125
15616SOL    HW158907   3.947   9.233   9.106
15616SOL    HW258908   3.977   9.123   9.223
15617SOL     OW58909   3.818   8.670   9.004
15617SOL    HW158910   3.811   8.572   8.982
15617SOL    HW258911   3.739   8.718   8.966
15618SOL     OW58912   3.901   9.051   8.425
15618SOL    HW158913   3.882   8.954   8.438
15618SOL    HW258914   3.939   9.066   8.334
15619SOL     OW58915   4.768   7.527   8.273
15619SOL    HW158916   4.779   7.608   8.330
15619SOL    HW258917   4.695   7.469   8.310
15620SOL     OW58918   4.799   8.558   7.741
15620SOL    HW158919   4.898   8.561   7.752
15620SOL    HW258920   4.760   8.496   7.809
15621SOL     OW58921   4.444   8.529   7.617
15621SOL    HW158922   4.518   8.589   7.586
15621SOL    HW258923   4.452   8.440   7.573
15622SOL     OW58924   4.499   7.493   7.548
15622SOL    HW158925   4.571   7.423   7.550
15622SOL    HW258926   4.541   7.583   7.560
15623SOL     OW58927   4.163   7.897   8.106
15623SOL    HW158928   4.245   7.842   8.119
15623SOL    HW258929   4.176   7.958   8.028
15624SOL     OW58930   4.270   8.437   8.809
15624SOL    HW158931   4.360   8.406   8.839
15624SOL    HW258932   4.280   8.520   8.755
15625SOL     OW58933   5.450   8.487   8.708
15625SOL    HW158934   5.446   8.585   8.690
15625SOL    HW258935   5.505   8.442   8.638
15626SOL     OW58936   3.913   8.620   7.458
15626SOL    HW158937   3.878   8.643   7.368
15626SOL    HW258938   3.974   8.693   7.490
15627SOL     OW58939   4.378   9.070   7.631
15627SOL    HW158940   4.311   9.125   7.581
15627SOL    HW258941   4.332   9.005   7.690
15628SOL     OW58942   5.006   8.484   8.833
15628SOL    HW158943   4.952   8.452   8.911
15628SOL    HW258944   4.991   8.581   8.819
15629SOL     OW58945   4.242   9.107   8.762
15629SOL    HW158946   4.308   9.182   8.760
15629SOL    HW258947   4.156   9.137   8.722
15630SOL     OW58948   3.874   7.945   9.140
15630SOL    HW158949   3.862   7.847   9.124
15630SOL    HW258950   3.916   7.960   9.230
15631SOL     OW58951   5.350   8.944   8.462
15631SOL    HW158952   5.397   9.028   8.489
15631SOL    HW258953   5.370   8.872   8.529
15632SOL     OW58954   3.696   8.338   8.081
15632SOL    HW158955   3.725   8.414   8.022
15632SOL    HW258956   3.596   8.338   8.088
15633SOL     OW58957   4.247   8.177   8.929
15633SOL    HW158958   4.160   8.128   8.931
15633SOL    HW258959   4.236   8.263   8.880
15634SOL     OW58960   5.337   8.578   8.210
15634SOL    HW158961   5.311   8.672   8.233
15634SOL    HW258962   5.336   8.566   8.111
15635SOL     OW58963   4.424   7.923   8.395
15635SOL    HW158964   4.523   7.920   8.410
15635SOL    HW258965   4.379   7.963   8.475
15636SOL     OW58966   4.326   8.665   8.657
15636SOL    HW158967   4.233   8.683   8.624
15636SOL    HW258968   4.385   8.640   8.580
15637SOL     OW58969   3.861   8.074   8.560
15637SOL    HW158970   3.883   8.151   8.620
15637SOL    HW258971   3.872   8.102   8.464
15638SOL     OW58972   4.037   8.754   8.867
15638SOL    HW158973   4.076   8.837   8.908
15638SOL    HW258974   3.957   8.725   8.918
15639SOL     OW58975   5.341   9.076   9.173
15639SOL    HW158976   5.305   8.985   9.149
15639SOL    HW258977   5.317   9.141   9.101
15640SOL     OW58978   5.078   8.558   7.779
15640SOL    HW158979   5.114   8.520   7.864
15640SOL    HW258980   5.153   8.570   7.713
15641SOL     OW58981   4.340   7.743   7.864
15641SOL    HW158982   4.243   7.717   7.856
15641SOL    HW258983   4.367   7.739   7.960
15642SOL     OW58984   4.878   8.091   8.776
15642SOL    HW158985   4.965   8.099   8.727
15642SOL    HW258986   4.811   8.154   8.737
15643SOL     OW58987   4.351   8.125   8.213
15643SOL    HW158988   4.375   8.054   8.280
15643SOL    HW258989   4.375   8.093   8.122
15644SOL     OW58990   4.956   8.780   8.408
15644SOL    HW158991   4.897   8.837   8.466
15644SOL    HW258992   4.979   8.830   8.325
15645SOL     OW58993   5.333   8.674   9.734
15645SOL    HW158994   5.368   8.716   9.817
15645SOL    HW258995   5.406   8.624   9.687
15646SOL     OW58996   4.040   7.584   9.208
15646SOL    HW158997   3.959   7.614   9.158
15646SOL    HW258998   4.113   7.651   9.198
15647SOL     OW58999   4.208   8.928   9.595
15647SOL    HW159000   4.192   8.993   9.669
15647SOL    HW259001   4.247   8.844   9.633
15648SOL     OW59002   4.216   7.409   9.330
15648SOL    HW159003   4.291   7.396   9.264
15648SOL    HW259004   4.151   7.476   9.293
15649SOL     OW59005   4.069   8.553   9.938
15649SOL    HW159006   4.001   8.598   9.997
15649SOL    HW259007   4.156   8.601   9.944
15650SOL     OW59008   4.399   8.073   9.850
15650SOL    HW159009   4.432   8.118   9.767
15650SOL    HW259010   4.357   7.986   9.826
15651SOL     OW59011   4.120   8.769   9.365
15651SOL    HW159012   4.176   8.777   9.283
15651SOL    HW259013   4.158   8.827   9.437
15652SOL     OW59014   3.957   8.165   9.640
15652SOL    HW159015   3.920   8.087   9.691
15652SOL    HW259016   3.932   8.250   9.688
15653SOL     OW59017   5.477   9.029   9.631
15653SOL    HW159018   5.560   8.981   9.606
15653SOL    HW259019   5.432   9.064   9.549
15654SOL     OW59020   4.710   7.802   9.599
15654SOL    HW159021   4.756   7.890   9.596
15654SOL    HW259022   4.719   7.762   9.690
15655SOL     OW59023   4.226   8.055   9.249
15655SOL    HW159024   4.197   8.150   9.245
15655SOL    HW259025   4.308   8.043   9.192
15656SOL     OW59026   5.460   8.779   9.966
15656SOL    HW159027   5.410   8.770   0.051
15656SOL    HW259028   5.468   8.876   9.942
15657SOL     OW59029   4.000   8.618   9.682
15657SOL    HW159030   4.025   8.587   9.774
15657SOL    HW259031   4.065   8.581   9.615
15658SOL     OW59032   4.853   7.717   9.373
15658SOL    HW159033   4.934   7.662   9.396
15658SOL    HW259034   4.804   7.742   9.456
15659SOL     OW59035   5.608   9.175   0.222
15659SOL    HW159036   5.598   9.224   0.309
15659SOL    HW259037   5.693   9.123   0.222
15660SOL     OW59038   4.605   7.910   9.947
15660SOL    HW159039   4.687   7.959   9.976
15660SOL    HW259040   4.533   7.976   9.924
15661SOL     OW59041   4.958   8.348   9.378
15661SOL    HW159042   4.970   8.320   9.474
15661SOL    HW259043   4.913   8.275   9.327
15662SOL     OW59044   5.391   8.011   9.537
15662SOL    HW159045   5.341   7.926   9.520
15662SOL    HW259046   5.459   7.995   9.609
15663SOL     OW59047   4.824   9.204   9.361
15663SOL    HW159048   4.828   9.136   9.288
15663SOL    HW259049   4.818   9.157   9.449
15664SOL     OW59050   3.768   8.013   9.787
15664SOL    HW159051   3.742   7.967   9.872
15664SOL    HW259052   3.755   8.112   9.798
15665SOL     OW59053   3.898   8.862   9.598
15665SOL    HW159054   3.931   8.771   9.625
15665SOL    HW259055   3.957   8.899   9.527
15666SOL     OW59056   3.921   9.051   9.905
15666SOL    HW159057   3.885   9.099   9.985
15666SOL    HW259058   3.851   9.048   9.833
15667SOL     OW59059   4.181   8.328   9.247
15667SOL    HW159060   4.157   8.373   9.161
15667SOL    HW259061   4.152   8.386   9.323
15668SOL     OW59062   3.772   8.201   9.436
15668SOL    HW159063   3.847   8.194   9.501
15668SOL    HW259064   3.695   8.145   9.467
15669SOL     OW59065   5.275   8.245   9.620
15669SOL    HW159066   5.313   8.158   9.588
15669SOL    HW259067   5.298   8.317   9.555
15670SOL     OW59068   4.449   8.303   9.311
15670SOL    HW159069   4.475   8.211   9.340
15670SOL    HW259070   4.353   8.303   9.281
15671SOL     OW59071   5.029   7.851   9.669
15671SOL    HW159072   4.970   7.915   9.621
15671SOL    HW259073   5.113   7.835   9.617
15672SOL     OW59074   5.381   7.710   9.739
15672SOL    HW159075   5.481   7.698   9.738
15672SOL    HW259076   5.356   7.782   9.803
15673SOL     OW59077   4.527   7.758   9.402
15673SOL    HW159078   4.435   7.738   9.433
15673SOL    HW259079   4.587   7.772   9.481
15674SOL     OW59080   4.653   8.687   9.373
15674SOL    HW159081   4.709   8.656   9.451
15674SOL    HW259082   4.710   8.692   9.291
15675SOL     OW59083   5.471   9.044   9.902
15675SOL    HW159084   5.414   9.118   9.938
15675SOL    HW259085   5.463   9.042   9.802
15676SOL     OW59086   4.866   8.290   9.866
15676SOL    HW159087   4.900   8.348   9.940
15676SOL    HW259088   4.784   8.331   9.827
15677SOL     OW59089   5.140   8.165   0.042
15677SOL    HW159090   5.107   8.074   0.018
15677SOL    HW259091   5.072   8.212   0.098
15678SOL     OW59092   4.631   8.384   9.760
15678SOL    HW159093   4.592   8.324   9.691
15678SOL    HW259094   4.568   8.392   9.837
15679SOL     OW59095   3.782   7.748   9.656
15679SOL    HW159096   3.838   7.738   9.574
15679SOL    HW259097   3.800   7.837   9.698
15680SOL     OW59098   5.349   9.186   9.427
15680SOL    HW159099   5.432   9.242   9.420
15680SOL    HW259100   5.335   9.136   9.342
15681SOL     OW59101   4.475   8.194   9.619
15681SOL    HW159102   4.382   8.224   9.599
15681SOL    HW259103   4.511   8.143   9.541
15682SOL     OW59104   4.010   9.088   9.391
15682SOL    HW159105   4.095   9.043   9.365
15682SOL    HW259106   4.029   9.157   9.462
15683SOL     OW59107   3.731   8.526   9.700
15683SOL    HW159108   3.812   8.582   9.722
15683SOL    HW259109   3.725   8.514   9.601
15684SOL     OW59110   5.072   7.565   9.449
15684SOL    HW159111   5.080   7.476   9.404
15684SOL    HW259112   5.030   7.552   9.539
15685SOL     OW59113   5.001   8.243   9.631
15685SOL    HW159114   4.963   8.266   9.720
15685SOL    HW259115   5.101   8.248   9.635
15686SOL     OW59116   5.357   8.197   9.879
15686SOL    HW159117   5.319   8.220   9.790
15686SOL    HW259118   5.285   8.200   9.949
15687SOL     OW59119   5.244   7.774   9.517
15687SOL    HW159120   5.299   7.738   9.592
15687SOL    HW259121   5.195   7.698   9.473
15688SOL     OW59122   4.010   7.974   9.395
15688SOL    HW159123   4.094   7.996   9.344
15688SOL    HW259124   3.996   8.043   9.466
15689SOL     OW59125   4.160   9.122   9.799
15689SOL    HW159126   4.071   9.098   9.838
15689SOL    HW259127   4.225   9.139   9.874
15690SOL     OW59128   4.309   8.689   9.672
15690SOL    HW159129   4.366   8.638   9.607
15690SOL    HW259130   4.327   8.656   9.764
15691SOL     OW59131   3.922   7.717   9.424
15691SOL    HW159132   3.970   7.658   9.359
15691SOL    HW259133   3.953   7.811   9.414
15692SOL     OW59134   3.666   7.949   0.037
15692SOL    HW159135   3.662   8.044   0.070
15692SOL    HW259136   3.711   7.892   0.106
15693SOL     OW59137   4.164   8.511   9.461
15693SOL    HW159138   4.262   8.526   9.466
15693SOL    HW259139   4.120   8.591   9.421
15694SOL     OW59140   4.812   8.109   9.276
15694SOL    HW159141   4.765   8.169   9.211
15694SOL    HW259142   4.876   8.050   9.226
15695SOL     OW59143   4.559   8.058   9.391
15695SOL    HW159144   4.650   8.074   9.353
15695SOL    HW259145   4.531   7.963   9.373
15696SOL     OW59146   4.942   7.587   9.687
15696SOL    HW159147   4.859   7.586   9.743
15696SOL    HW259148   4.984   7.678   9.691
15697SOL     OW59149   3.763   7.470   9.408
15697SOL    HW159150   3.841   7.407   9.412
15697SOL    HW259151   3.796   7.564   9.412
15698SOL     OW59152   5.347   8.406   9.410
15698SOL    HW159153   5.439   8.446   9.408
15698SOL    HW259154   5.321   8.379   9.317
15699SOL     OW59155   4.736   7.689   9.854
15699SOL    HW159156   4.808   7.673   9.922
15699SOL    HW259157   4.672   7.757   9.890
15700SOL     OW59158   3.751   8.482   9.434
15700SOL    HW159159   3.771   8.386   9.416
15700SOL    HW259160   3.805   8.540   9.373
15701SOL     OW59161   5.469   7.726   0.087
15701SOL    HW159162   5.389   7.727   0.147
15701SOL    HW259163   5.535   7.659   0.121
15702SOL     OW59164   4.867   8.027   9.538
15702SOL    HW159165   4.912   8.107   9.579
15702SOL    HW259166   4.844   8.047   9.443
15703SOL     OW59167   4.493   8.877   9.241
15703SOL    HW159168   4.434   8.934   9.298
15703SOL    HW259169   4.551   8.820   9.300
15704SOL     OW59170   4.349   8.610   9.931
15704SOL    HW159171   4.405   8.673   9.986
15704SOL    HW259172   4.388   8.518   9.936
15705SOL     OW59173   4.214   8.265   9.582
15705SOL    HW159174   4.192   8.354   9.542
15705SOL    HW259175   4.129   8.217   9.605
15706SOL     OW59176   3.739   7.490   9.743
15706SOL    HW159177   3.645   7.461   9.727
15706SOL    HW259178   3.754   7.581   9.704
15707SOL     OW59179   4.109   8.855   9.952
15707SOL    HW159180   4.129   8.818   9.861
15707SOL    HW259181   4.034   8.920   9.945
15708SOL     OW59182   4.782   8.576   9.593
15708SOL    HW159183   4.871   8.600   9.632
15708SOL    HW259184   4.735   8.512   9.654
15709SOL     OW59185   5.332   7.912   9.923
15709SOL    HW159186   5.361   8.007   9.914
15709SOL    HW259187   5.388   7.867   9.994
15710SOL     OW59188   4.437   8.540   9.463
15710SOL    HW159189   4.512   8.600   9.437
15710SOL    HW259190   4.454   8.448   9.427
15711SOL     OW59191   4.609   7.533   9.255
15711SOL    HW159192   4.682   7.480   9.298
15711SOL    HW259193   4.587   7.612   9.313
15712SOL     OW59194   3.899   8.634   9.268
15712SOL    HW159195   3.870   8.657   9.175
15712SOL    HW259196   3.968   8.699   9.299
15713SOL     OW59197   4.300   9.024   9.363
15713SOL    HW159198   4.289   9.122   9.348
15713SOL    HW259199   4.278   9.002   9.458
15714SOL     OW59200   3.717   8.278   9.814
15714SOL    HW159201   3.726   8.369   9.774
15714SOL    HW259202   3.635   8.275   9.872
15715SOL     OW59203   5.053   8.635   9.669
15715SOL    HW159204   5.145   8.647   9.707
15715SOL    HW259205   5.059   8.617   9.571
15716SOL     OW59206   5.344   7.516   9.951
15716SOL    HW159207   5.328   7.538   9.854
15716SOL    HW259208   5.394   7.592   9.994
15717SOL     OW59209   5.062   7.906   9.935
15717SOL    HW159210   5.039   7.887   9.840
15717SOL    HW259211   5.161   7.901   9.947
15718SOL     OW59212   4.961   9.270   1.373
15718SOL    HW159213   4.879   9.227   1.412
15718SOL    HW259214   4.989   9.220   1.291
15719SOL     OW59215   4.444   9.791   0.586
15719SOL    HW159216   4.458   9.866   0.521
15719SOL    HW259217   4.412   9.710   0.538
15720SOL     OW59218   4.174   9.510   0.998
15720SOL    HW159219   4.239   9.585   1.011
15720SOL    HW259220   4.217   9.437   0.945
15721SOL     OW59221   5.393   9.571   1.096
15721SOL    HW159222   5.424   9.665   1.110
15721SOL    HW259223   5.294   9.569   1.087
15722SOL     OW59224   4.715   9.679   0.336
15722SOL    HW159225   4.722   9.702   0.433
15722SOL    HW259226   4.682   9.585   0.327
15723SOL     OW59227   4.274   9.888   0.081
15723SOL    HW159228   4.268   9.987   0.073
15723SOL    HW259229   4.353   9.863   0.137
15724SOL     OW59230   4.898   9.539   0.163
15724SOL    HW159231   4.951   9.582   0.090
15724SOL    HW259232   4.855   9.609   0.219
15725SOL     OW59233   4.015   9.768   1.145
15725SOL    HW159234   3.999   9.673   1.171
15725SOL    HW259235   3.931   9.821   1.158
15726SOL     OW59236   4.076   9.572   0.448
15726SOL    HW159237   4.015   9.601   0.523
15726SOL    HW259238   4.077   9.643   0.378
15727SOL     OW59239   5.443   9.840   1.139
15727SOL    HW159240   5.534   9.882   1.146
15727SOL    HW259241   5.381   9.886   1.202
15728SOL     OW59242   4.714   9.718   0.603
15728SOL    HW159243   4.771   9.769   0.668
15728SOL    HW259244   4.618   9.743   0.617
15729SOL     OW59245   5.374   9.880   0.281
15729SOL    HW159246   5.433   9.869   0.200
15729SOL    HW259247   5.386   9.803   0.342
15730SOL     OW59248   5.430   9.869   0.868
15730SOL    HW159249   5.375   9.947   0.838
15730SOL    HW259250   5.428   9.863   0.968
15731SOL     OW59251   5.092   9.220   0.901
15731SOL    HW159252   5.045   9.308   0.900
15731SOL    HW259253   5.180   9.229   0.853
15732SOL     OW59254   5.405   9.440   1.737
15732SOL    HW159255   5.369   9.459   1.828
15732SOL    HW259256   5.364   9.356   1.702
15733SOL     OW59257   3.938   9.438   0.846
15733SOL    HW159258   4.007   9.477   0.907
15733SOL    HW259259   3.973   9.353   0.807
15734SOL     OW59260   4.010   9.493   1.216
15734SOL    HW159261   3.983   9.397   1.227
15734SOL    HW259262   4.077   9.500   1.142
15735SOL     OW59263   4.714   0.283   1.192
15735SOL    HW159264   4.792   0.226   1.215
15735SOL    HW259265   4.664   0.243   1.115
15736SOL     OW59266   5.103   9.677   0.439
15736SOL    HW159267   5.057   9.749   0.386
15736SOL    HW259268   5.202   9.694   0.439
15737SOL     OW59269   3.952   9.826   1.558
15737SOL    HW159270   3.930   9.738   1.518
15737SOL    HW259271   3.897   9.840   1.641
15738SOL     OW59272   3.875   9.580   1.449
15738SOL    HW159273   3.938   9.552   1.376
15738SOL    HW259274   3.781   9.564   1.420
15739SOL     OW59275   4.666   9.958   1.110
15739SOL    HW159276   4.706   9.870   1.083
15739SOL    HW259277   4.603   9.943   1.186
15740SOL     OW59278   5.386   9.679   0.473
15740SOL    HW159279   5.480   9.648   0.458
15740SOL    HW259280   5.365   9.675   0.571
15741SOL     OW59281   4.624   0.195   0.508
15741SOL    HW159282   4.576   0.115   0.474
15741SOL    HW259283   4.570   0.238   0.581
15742SOL     OW59284   3.714   9.593   0.426
15742SOL    HW159285   3.767   9.603   0.342
15742SOL    HW259286   3.773   9.610   0.505
15743SOL     OW59287   4.506   9.933   1.325
15743SOL    HW159288   4.488   0.023   1.365
15743SOL    HW259289   4.420   9.888   1.304
15744SOL     OW59290   4.056   9.921   0.912
15744SOL    HW159291   4.143   9.900   0.868
15744SOL    HW259292   4.047   9.865   0.995
15745SOL     OW59293   4.470   9.305   0.389
15745SOL    HW159294   4.562   9.326   0.356
15745SOL    HW259295   4.423   9.390   0.412
15746SOL     OW59296   5.285   9.586   1.541
15746SOL    HW159297   5.269   9.681   1.568
15746SOL    HW259298   5.328   9.536   1.615
15747SOL     OW59299   4.975   9.476   0.912
15747SOL    HW159300   4.999   9.523   0.827
15747SOL    HW259301   5.026   9.518   0.988
15748SOL     OW59302   5.252   9.235   1.623
15748SOL    HW159303   5.246   9.204   1.528
15748SOL    HW259304   5.162   9.267   1.653
15749SOL     OW59305   4.455   9.485   0.722
15749SOL    HW159306   4.390   9.426   0.770
15749SOL    HW259307   4.547   9.471   0.759
15750SOL     OW59308   5.038   9.888   1.125
15750SOL    HW159309   5.052   9.939   1.040
15750SOL    HW259310   4.996   9.948   1.193
15751SOL     OW59311   5.287   9.258   0.476
15751SOL    HW159312   5.288   9.188   0.404
15751SOL    HW259313   5.195   9.297   0.483
15752SOL     OW59314   4.887   9.810   0.797
15752SOL    HW159315   4.959   9.747   0.770
15752SOL    HW259316   4.850   9.782   0.886
15753SOL     OW59317   5.114   9.618   1.104
15753SOL    HW159318   5.100   9.717   1.117
15753SOL    HW259319   5.113   9.573   1.193
15754SOL     OW59320   5.239   9.785   1.994
15754SOL    HW159321   5.331   9.805   2.029
15754SOL    HW259322   5.231   9.688   1.973
15755SOL     OW59323   5.328   9.473   0.303
15755SOL    HW159324   5.341   9.552   0.363
15755SOL    HW259325   5.306   9.393   0.359
15756SOL     OW59326   3.835   9.422   1.685
15756SOL    HW159327   3.853   9.479   1.604
15756SOL    HW259328   3.742   9.437   1.716
15757SOL     OW59329   3.885   9.615   0.640
15757SOL    HW159330   3.863   9.702   0.682
15757SOL    HW259331   3.902   9.547   0.711
15758SOL     OW59332   4.065   9.784   0.268
15758SOL    HW159333   4.131   9.816   0.201
15758SOL    HW259334   4.027   9.862   0.318
15759SOL     OW59335   5.466   9.481   1.357
15759SOL    HW159336   5.395   9.518   1.415
15759SOL    HW259337   5.441   9.494   1.261
15760SOL     OW59338   3.825   9.836   0.777
15760SOL    HW159339   3.740   9.846   0.829
15760SOL    HW259340   3.900   9.878   0.829
15761SOL     OW59341   4.850   9.880   0.012
15761SOL    HW159342   4.876   9.963   9.963
15761SOL    HW259343   4.922   9.811   0.001
15762SOL     OW59344   4.645   9.898   0.189
15762SOL    HW159345   4.711   9.895   0.114
15762SOL    HW259346   4.657   9.817   0.247
15763SOL     OW59347   5.056   9.403   0.483
15763SOL    HW159348   4.967   9.403   0.528
15763SOL    HW259349   5.074   9.493   0.445
15764SOL     OW59350   3.840   9.189   0.124
15764SOL    HW159351   3.914   9.165   0.187
15764SOL    HW259352   3.807   9.281   0.144
15765SOL     OW59353   4.251   9.870   1.239
15765SOL    HW159354   4.232   9.963   1.270
15765SOL    HW259355   4.166   9.826   1.211
15766SOL     OW59356   4.799   9.454   0.586
15766SOL    HW159357   4.776   9.551   0.585
15766SOL    HW259358   4.765   9.412   0.670
15767SOL     OW59359   4.277   9.312   0.841
15767SOL    HW159360   4.201   9.269   0.792
15767SOL    HW259361   4.346   9.243   0.863
15768SOL     OW59362   3.747   0.208   1.075
15768SOL    HW159363   3.831   0.252   1.107
15768SOL    HW259364   3.668   0.258   1.110
15769SOL     OW59365   3.968   9.315   0.469
15769SOL    HW159366   4.006   9.406   0.453
15769SOL    HW259367   3.868   9.321   0.474
15770SOL     OW59368   5.502   9.444   0.867
15770SOL    HW159369   5.473   9.476   0.957
15770SOL    HW259370   5.601   9.434   0.866
15771SOL     OW59371   4.995   9.895   0.306
15771SOL    HW159372   4.996   9.968   0.375
15771SOL    HW259373   4.909   9.897   0.256
15772SOL     OW59374   3.988   0.038   1.380
15772SOL    HW159375   3.992   9.960   1.442
15772SOL    HW259376   3.942   0.115   1.425
15773SOL     OW59377   4.086   9.728   1.806
15773SOL    HW159378   4.090   9.770   1.716
15773SOL    HW259379   4.155   9.768   1.865
15774SOL     OW59380   4.259   0.109   0.334
15774SOL    HW159381   4.257   0.134   0.237
15774SOL    HW259382   4.199   0.170   0.385
15775SOL     OW59383   5.122   9.489   1.338
15775SOL    HW159384   5.173   9.516   1.420
15775SOL    HW259385   5.063   9.411   1.359
15776SOL     OW59386   3.681   9.321   0.471
15776SOL    HW159387   3.593   9.310   0.518
15776SOL    HW259388   3.691   9.417   0.443
15777SOL     OW59389   5.025   9.327   1.765
15777SOL    HW159390   5.049   9.312   1.861
15777SOL    HW259391   4.983   9.417   1.755
15778SOL     OW59392   4.816   9.735   1.054
15778SOL    HW159393   4.898   9.781   1.087
15778SOL    HW259394   4.827   9.636   1.065
15779SOL     OW59395   4.704   9.410   0.843
15779SOL    HW159396   4.795   9.426   0.883
15779SOL    HW259397   4.649   9.356   0.907
15780SOL     OW59398   5.352   9.642   0.742
15780SOL    HW159399   5.378   9.727   0.788
15780SOL    HW259400   5.404   9.566   0.781
15781SOL     OW59401   4.310   9.857   0.820
15781SOL    HW159402   4.335   9.790   0.890
15781SOL    HW259403   4.356   9.833   0.734
15782SOL     OW59404   3.823   9.836   1.809
15782SOL    HW159405   3.908   9.792   1.839
15782SOL    HW259406   3.784   9.888   1.885
15783SOL     OW59407   4.367   9.707   1.045
15783SOL    HW159408   4.462   9.683   1.065
15783SOL    HW259409   4.333   9.768   1.116
15784SOL     OW59410   3.819   9.960   1.179
15784SOL    HW159411   3.879   9.987   1.254
15784SOL    HW259412   3.792   0.041   1.126
15785SOL     OW59413   4.355   9.545   0.478
15785SOL    HW159414   4.256   9.548   0.474
15785SOL    HW259415   4.385   9.522   0.570
15786SOL     OW59416   5.330   9.250   0.755
15786SOL    HW159417   5.313   9.268   0.658
15786SOL    HW259418   5.392   9.319   0.791
15787SOL     OW59419   5.078   9.636   0.711
15787SOL    HW159420   5.067   9.646   0.613
15787SOL    HW259421   5.175   9.636   0.734
15788SOL     OW59422   5.434   9.867   3.298
15788SOL    HW159423   5.343   9.827   3.304
15788SOL    HW259424   5.482   9.856   3.385
15789SOL     OW59425   4.045   9.463   1.858
15789SOL    HW159426   3.975   9.431   1.795
15789SOL    HW259427   4.071   9.557   1.834
15790SOL     OW59428   4.898   9.316   3.186
15790SOL    HW159429   4.822   9.265   3.226
15790SOL    HW259430   4.942   9.261   3.115
15791SOL     OW59431   4.218   9.308   2.008
15791SOL    HW159432   4.306   9.306   1.961
15791SOL    HW259433   4.155   9.367   1.957
15792SOL     OW59434   4.391   9.846   2.422
15792SOL    HW159435   4.346   9.919   2.370
15792SOL    HW259436   4.376   9.759   2.376
15793SOL     OW59437   4.230   9.493   2.861
15793SOL    HW159438   4.300   9.563   2.878
15793SOL    HW259439   4.268   9.420   2.805
15794SOL     OW59440   5.385   9.567   2.970
15794SOL    HW159441   5.417   9.661   2.981
15794SOL    HW259442   5.285   9.566   2.970
15795SOL     OW59443   4.750   9.725   2.200
15795SOL    HW159444   4.719   9.745   2.293
15795SOL    HW259445   4.810   9.645   2.201
15796SOL     OW59446   4.261   9.839   1.986
15796SOL    HW159447   4.258   9.939   1.986
15796SOL    HW259448   4.343   9.807   2.033
15797SOL     OW59449   4.778   9.766   3.228
15797SOL    HW159450   4.838   9.690   3.253
15797SOL    HW259451   4.826   9.852   3.240
15798SOL     OW59452   4.083   9.770   3.061
15798SOL    HW159453   4.082   9.671   3.075
15798SOL    HW259454   3.988   9.804   3.062
15799SOL     OW59455   5.160   0.037   3.118
15799SOL    HW159456   5.216   0.101   3.065
15799SOL    HW259457   5.188   0.040   3.214
15800SOL     OW59458   4.088   9.532   2.305
15800SOL    HW159459   4.030   9.563   2.380
15800SOL    HW259460   4.042   9.548   2.218
15801SOL     OW59461   5.472   9.831   3.024
15801SOL    HW159462   5.555   9.878   2.995
15801SOL    HW259463   5.456   9.847   3.121
15802SOL     OW59464   4.653   9.742   2.450
15802SOL    HW159465   4.703   9.753   2.536
15802SOL    HW259466   4.564   9.786   2.457
15803SOL     OW59467   5.474   9.821   2.133
15803SOL    HW159468   5.565   9.780   2.137
15803SOL    HW259469   5.420   9.787   2.210
15804SOL     OW59470   4.511   9.269   3.573
15804SOL    HW159471   4.516   9.177   3.535
15804SOL    HW259472   4.544   9.267   3.668
15805SOL     OW59473   5.424   9.856   2.748
15805SOL    HW159474   5.382   9.940   2.713
15805SOL    HW259475   5.424   9.858   2.848
15806SOL     OW59476   5.089   9.187   2.734
15806SOL    HW159477   5.040   9.274   2.740
15806SOL    HW259478   5.174   9.200   2.683
15807SOL     OW59479   5.452   9.402   3.619
15807SOL    HW159480   5.427   9.460   3.697
15807SOL    HW259481   5.418   9.309   3.633
15808SOL     OW59482   4.006   9.431   2.695
15808SOL    HW159483   4.074   9.469   2.758
15808SOL    HW259484   4.036   9.341   2.664
15809SOL     OW59485   4.058   9.472   3.072
15809SOL    HW159486   4.042   9.375   3.090
15809SOL    HW259487   4.120   9.481   2.994
15810SOL     OW59488   5.084   9.666   2.286
15810SOL    HW159489   5.049   9.748   2.240
15810SOL    HW259490   5.183   9.673   2.296
15811SOL     OW59491   3.971   9.935   3.331
15811SOL    HW159492   4.031   9.873   3.280
15811SOL    HW259493   3.942   9.890   3.416
15812SOL     OW59494   3.850   9.555   3.238
15812SOL    HW159495   3.925   9.527   3.178
15812SOL    HW259496   3.763   9.522   3.201
15813SOL     OW59497   4.687   0.019   3.012
15813SOL    HW159498   4.722   9.939   2.964
15813SOL    HW259499   4.616   9.992   3.077
15814SOL     OW59500   5.355   9.669   2.331
15814SOL    HW159501   5.443   9.625   2.311
15814SOL    HW259502   5.340   9.670   2.429
15815SOL     OW59503   4.630   0.209   2.378
15815SOL    HW159504   4.601   0.143   2.307
15815SOL    HW259505   4.556   0.221   2.444
15816SOL     OW59506   3.731   9.539   2.282
15816SOL    HW159507   3.791   9.547   2.202
15816SOL    HW259508   3.784   9.557   2.365
15817SOL     OW59509   4.529   9.893   3.202
15817SOL    HW159510   4.494   9.921   3.291
15817SOL    HW259511   4.607   9.832   3.214
15818SOL     OW59512   4.049   9.859   2.791
15818SOL    HW159513   4.119   9.828   2.727
15818SOL    HW259514   4.069   9.823   2.882
15819SOL     OW59515   4.387   9.286   2.246
15819SOL    HW159516   4.314   9.281   2.179
15819SOL    HW259517   4.402   9.381   2.273
15820SOL     OW59518   5.281   9.551   3.400
15820SOL    HW159519   5.244   9.637   3.367
15820SOL    HW259520   5.315   9.562   3.493
15821SOL     OW59521   4.986   9.445   2.767
15821SOL    HW159522   5.002   9.510   2.693
15821SOL    HW259523   5.026   9.480   2.852
15822SOL     OW59524   5.095   9.291   2.032
15822SOL    HW159525   5.114   9.194   2.046
15822SOL    HW259526   5.055   9.330   2.115
15823SOL     OW59527   5.237   9.277   3.413
15823SOL    HW159528   5.236   9.231   3.324
15823SOL    HW259529   5.264   9.373   3.400
15824SOL     OW59530   4.441   9.527   2.572
15824SOL    HW159531   4.395   9.447   2.610
15824SOL    HW259532   4.539   9.521   2.593
15825SOL     OW59533   5.070   9.847   2.946
15825SOL    HW159534   5.070   9.897   2.859
15825SOL    HW259535   5.114   9.903   3.016
15826SOL     OW59536   5.287   9.282   2.300
15826SOL    HW159537   5.309   9.234   2.215
15826SOL    HW259538   5.193   9.318   2.294
15827SOL     OW59539   4.801   9.750   2.674
15827SOL    HW159540   4.891   9.717   2.646
15827SOL    HW259541   4.798   9.757   2.774
15828SOL     OW59542   5.549   9.836   3.550
15828SOL    HW159543   5.566   9.899   3.626
15828SOL    HW259544   5.634   9.789   3.526
15829SOL     OW59545   5.107   9.581   2.988
15829SOL    HW159546   5.096   9.677   2.964
15829SOL    HW259547   5.064   9.564   3.077
15830SOL     OW59548   5.337   9.678   3.644
15830SOL    HW159549   5.410   9.741   3.617
15830SOL    HW259550   5.354   9.646   3.737
15831SOL     OW59551   5.283   9.492   1.984
15831SOL    HW159552   5.341   9.497   2.066
15831SOL    HW259553   5.216   9.419   1.995
15832SOL     OW59554   3.817   9.529   3.505
15832SOL    HW159555   3.824   9.541   3.406
15832SOL    HW259556   3.728   9.490   3.528
15833SOL     OW59557   3.898   9.580   2.496
15833SOL    HW159558   3.868   9.666   2.538
15833SOL    HW259559   3.936   9.520   2.567
15834SOL     OW59560   4.013   9.805   2.117
15834SOL    HW159561   4.103   9.816   2.074
15834SOL    HW259562   3.996   9.883   2.177
15835SOL     OW59563   5.474   9.470   3.215
15835SOL    HW159564   5.406   9.502   3.282
15835SOL    HW259565   5.444   9.493   3.123
15836SOL     OW59566   3.916   9.555   2.080
15836SOL    HW159567   3.960   9.519   1.998
15836SOL    HW259568   3.937   9.653   2.089
15837SOL     OW59569   3.823   9.795   2.637
15837SOL    HW159570   3.735   9.828   2.672
15837SOL    HW259571   3.897   9.824   2.698
15838SOL     OW59572   4.483   9.756   2.135
15838SOL    HW159573   4.582   9.741   2.139
15838SOL    HW259574   4.436   9.689   2.191
15839SOL     OW59575   5.027   9.401   2.278
15839SOL    HW159576   4.941   9.391   2.328
15839SOL    HW259577   5.054   9.497   2.277
15840SOL     OW59578   5.171   9.786   3.321
15840SOL    HW159579   5.161   9.877   3.361
15840SOL    HW259580   5.086   9.759   3.276
15841SOL     OW59581   3.794   9.273   2.043
15841SOL    HW159582   3.873   9.212   2.056
15841SOL    HW259583   3.823   9.368   2.055
15842SOL     OW59584   4.344   9.924   2.994
15842SOL    HW159585   4.405   9.913   3.073
15842SOL    HW259586   4.254   9.888   3.016
15843SOL     OW59587   4.788   9.491   2.422
15843SOL    HW159588   4.738   9.577   2.420
15843SOL    HW259589   4.768   9.442   2.507
15844SOL     OW59590   4.328   9.309   2.686
15844SOL    HW159591   4.257   9.249   2.650
15844SOL    HW259592   4.408   9.254   2.711
15845SOL     OW59593   3.743   0.282   2.858
15845SOL    HW159594   3.833   0.259   2.893
15845SOL    HW259595   3.675   0.269   2.931
15846SOL     OW59596   4.027   9.266   2.338
15846SOL    HW159597   4.061   9.359   2.325
15846SOL    HW259598   3.929   9.269   2.358
15847SOL     OW59599   5.450   9.445   2.722
15847SOL    HW159600   5.431   9.476   2.816
15847SOL    HW259601   5.548   9.436   2.710
15848SOL     OW59602   3.862   0.125   3.168
15848SOL    HW159603   3.900   0.065   3.238
15848SOL    HW259604   3.769   0.153   3.195
15849SOL     OW59605   4.218   9.565   3.581
15849SOL    HW159606   4.311   9.566   3.546
15849SOL    HW259607   4.199   9.650   3.629
15850SOL     OW59608   4.257   0.026   2.260
15850SOL    HW159609   4.249   0.062   2.167
15850SOL    HW259610   4.165   0.013   2.298
15851SOL     OW59611   4.987   9.564   3.250
15851SOL    HW159612   5.054   9.547   3.323
15851SOL    HW259613   4.944   9.478   3.225
15852SOL     OW59614   3.760   9.276   2.375
15852SOL    HW159615   3.699   9.201   2.348
15852SOL    HW259616   3.722   9.363   2.345
15853SOL     OW59617   5.024   9.338   3.576
15853SOL    HW159618   5.103   9.317   3.518
15853SOL    HW259619   5.048   9.414   3.637
15854SOL     OW59620   4.805   9.780   2.948
15854SOL    HW159621   4.903   9.800   2.944
15854SOL    HW259622   4.782   9.746   3.039
15855SOL     OW59623   4.716   9.410   2.677
15855SOL    HW159624   4.805   9.421   2.721
15855SOL    HW259625   4.662   9.343   2.728
15856SOL     OW59626   5.318   9.654   2.601
15856SOL    HW159627   5.353   9.733   2.651
15856SOL    HW259628   5.359   9.570   2.637
15857SOL     OW59629   4.254   9.761   2.643
15857SOL    HW159630   4.298   9.672   2.659
15857SOL    HW259631   4.302   9.808   2.569
15858SOL     OW59632   3.920   9.777   3.554
15858SOL    HW159633   3.898   9.680   3.544
15858SOL    HW259634   3.996   9.787   3.619
15859SOL     OW59635   4.430   9.675   2.893
15859SOL    HW159636   4.522   9.675   2.853
15859SOL    HW259637   4.402   9.770   2.910
15860SOL     OW59638   3.850   9.913   2.994
15860SOL    HW159639   3.853   9.995   3.052
15860SOL    HW259640   3.902   9.931   2.910
15861SOL     OW59641   4.357   9.588   2.319
15861SOL    HW159642   4.259   9.567   2.312
15861SOL    HW259643   4.390   9.563   2.410
15862SOL     OW59644   5.313   9.245   2.581
15862SOL    HW159645   5.301   9.269   2.485
15862SOL    HW259646   5.363   9.317   2.628
15863SOL     OW59647   5.042   9.638   2.578
15863SOL    HW159648   5.023   9.638   2.480
15863SOL    HW259649   5.140   9.652   2.593
15864SOL     OW59650   5.313   9.832   5.086
15864SOL    HW159651   5.223   9.794   5.110
15864SOL    HW259652   5.384   9.765   5.109
15865SOL     OW59653   4.035   9.370   3.536
15865SOL    HW159654   3.952   9.424   3.524
15865SOL    HW259655   4.113   9.431   3.553
15866SOL     OW59656   4.769   9.343   5.013
15866SOL    HW159657   4.704   9.310   5.082
15866SOL    HW259658   4.746   9.305   4.924
15867SOL     OW59659   4.989   9.731   5.416
15867SOL    HW159660   5.078   9.699   5.449
15867SOL    HW259661   4.919   9.662   5.435
15868SOL     OW59662   4.331   9.660   4.660
15868SOL    HW159663   4.419   9.708   4.662
15868SOL    HW259664   4.344   9.571   4.615
15869SOL     OW59665   5.380   9.575   4.796
15869SOL    HW159666   5.408   9.671   4.795
15869SOL    HW259667   5.280   9.570   4.798
15870SOL     OW59668   4.143   9.790   3.726
15870SOL    HW159669   4.164   9.888   3.723
15870SOL    HW259670   4.148   9.758   3.821
15871SOL     OW59671   4.705   9.909   5.224
15871SOL    HW159672   4.730   9.819   5.261
15871SOL    HW259673   4.712   9.978   5.296
15872SOL     OW59674   5.146   0.020   4.981
15872SOL    HW159675   5.163   0.117   5.000
15872SOL    HW259676   5.219   9.965   5.019
15873SOL     OW59677   4.084   9.554   4.182
15873SOL    HW159678   4.150   9.576   4.254
15873SOL    HW259679   4.004   9.614   4.191
15874SOL     OW59680   5.447   9.842   4.830
15874SOL    HW159681   5.540   9.873   4.847
15874SOL    HW259682   5.393   9.852   4.914
15875SOL     OW59683   4.669   9.708   4.365
15875SOL    HW159684   4.744   9.716   4.431
15875SOL    HW259685   4.634   9.798   4.343
15876SOL     OW59686   4.792   9.552   5.470
15876SOL    HW159687   4.783   9.534   5.568
15876SOL    HW259688   4.744   9.482   5.418
15877SOL     OW59689   5.515   9.847   3.969
15877SOL    HW159690   5.455   9.777   4.005
15877SOL    HW259691   5.531   9.917   4.039
15878SOL     OW59692   4.483   9.245   5.447
15878SOL    HW159693   4.506   9.153   5.417
15878SOL    HW259694   4.524   9.263   5.537
15879SOL     OW59695   5.458   9.928   4.558
15879SOL    HW159696   5.460   0.027   4.548
15879SOL    HW259697   5.442   9.905   4.654
15880SOL     OW59698   5.069   9.227   4.559
15880SOL    HW159699   5.018   9.313   4.565
15880SOL    HW259700   5.155   9.242   4.511
15881SOL     OW59701   4.792   0.255   4.944
15881SOL    HW159702   4.836   0.205   5.019
15881SOL    HW259703   4.747   0.190   4.883
15882SOL     OW59704   4.682   0.033   4.826
15882SOL    HW159705   4.734   9.948   4.825
15882SOL    HW259706   4.606   0.026   4.889
15883SOL     OW59707   5.381   9.651   4.118
15883SOL    HW159708   5.474   9.615   4.130
15883SOL    HW259709   5.347   9.686   4.205
15884SOL     OW59710   4.607   0.004   4.357
15884SOL    HW159711   4.675   0.011   4.429
15884SOL    HW259712   4.550   0.087   4.356
15885SOL     OW59713   4.509   9.962   5.028
15885SOL    HW159714   4.450   0.033   5.067
15885SOL    HW259715   4.575   9.932   5.097
15886SOL     OW59716   5.280   9.534   5.236
15886SOL    HW159717   5.196   9.492   5.202
15886SOL    HW259718   5.265   9.568   5.329
15887SOL     OW59719   4.952   9.478   4.613
15887SOL    HW159720   4.925   9.560   4.563
15887SOL    HW259721   5.014   9.503   4.687
15888SOL     OW59722   4.492   9.517   4.462
15888SOL    HW159723   4.552   9.453   4.510
15888SOL    HW259724   4.546   9.592   4.424
15889SOL     OW59725   5.044   9.846   4.805
15889SOL    HW159726   5.060   9.882   4.712
15889SOL    HW259727   5.081   9.911   4.871
15890SOL     OW59728   5.309   9.281   4.152
15890SOL    HW159729   5.333   9.227   4.072
15890SOL    HW259730   5.244   9.352   4.126
15891SOL     OW59731   4.869   9.741   4.552
15891SOL    HW159732   4.934   9.815   4.539
15891SOL    HW259733   4.816   9.757   4.635
15892SOL     OW59734   5.440   9.804   5.423
15892SOL    HW159735   5.397   9.889   5.394
15892SOL    HW259736   5.537   9.819   5.442
15893SOL     OW59737   5.107   9.584   4.817
15893SOL    HW159738   5.087   9.682   4.812
15893SOL    HW259739   5.073   9.547   4.904
15894SOL     OW59740   5.239   9.641   5.494
15894SOL    HW159741   5.311   9.704   5.467
15894SOL    HW259742   5.253   9.614   5.589
15895SOL     OW59743   5.404   9.519   3.872
15895SOL    HW159744   5.377   9.568   3.955
15895SOL    HW259745   5.475   9.452   3.895
15896SOL     OW59746   5.480   9.592   5.063
15896SOL    HW159747   5.411   9.561   5.128
15896SOL    HW259748   5.449   9.572   4.970
15897SOL     OW59749   4.553   9.999   3.908
15897SOL    HW159750   4.636   9.945   3.892
15897SOL    HW259751   4.510   9.968   3.993
15898SOL     OW59752   5.059   9.738   5.147
15898SOL    HW159753   5.032   9.750   5.243
15898SOL    HW259754   5.035   9.646   5.117
15899SOL     OW59755   4.356   9.948   4.792
15899SOL    HW159756   4.397   9.943   4.883
15899SOL    HW259757   4.308   9.863   4.773
15900SOL     OW59758   4.765   9.438   4.323
15900SOL    HW159759   4.731   9.532   4.313
15900SOL    HW259760   4.736   9.402   4.411
15901SOL     OW59761   3.752   0.261   4.826
15901SOL    HW159762   3.749   0.162   4.812
15901SOL    HW259763   3.663   0.301   4.803
15902SOL     OW59764   5.438   9.494   4.532
15902SOL    HW159765   5.420   9.515   4.628
15902SOL    HW259766   5.536   9.483   4.518
15903SOL     OW59767   3.935   0.038   5.046
15903SOL    HW159768   4.030   0.043   5.078
15903SOL    HW259769   3.882   0.110   5.090
15904SOL     OW59770   5.011   9.477   5.059
15904SOL    HW159771   5.083   9.411   5.033
15904SOL    HW259772   4.922   9.433   5.052
15905SOL     OW59773   4.787   9.776   4.832
15905SOL    HW159774   4.885   9.799   4.829
15905SOL    HW259775   4.773   9.701   4.897
15906SOL     OW59776   4.697   9.371   4.588
15906SOL    HW159777   4.789   9.407   4.602
15906SOL    HW259778   4.675   9.305   4.660
15907SOL     OW59779   5.359   9.726   4.388
15907SOL    HW159780   5.394   9.801   4.444
15907SOL    HW259781   5.376   9.639   4.435
15908SOL     OW59782   4.251   9.631   4.384
15908SOL    HW159783   4.335   9.576   4.388
15908SOL    HW259784   4.237   9.677   4.472
15909SOL     OW59785   4.563   9.795   4.674
15909SOL    HW159786   4.640   9.785   4.737
15909SOL    HW259787   4.517   9.882   4.692
15910SOL     OW59788   3.774   9.982   4.834
15910SOL    HW159789   3.835   9.994   4.912
15910SOL    HW259790   3.825   9.940   4.759
15911SOL     OW59791   5.309   9.267   4.429
15911SOL    HW159792   5.304   9.271   4.329
15911SOL    HW259793   5.353   9.350   4.463
15912SOL     OW59794   5.358   9.850   6.956
15912SOL    HW159795   5.278   9.802   6.994
15912SOL    HW259796   5.438   9.829   7.012
15913SOL     OW59797   4.848   9.337   6.885
15913SOL    HW159798   4.772   9.288   6.928
15913SOL    HW259799   4.888   9.279   6.813
15914SOL     OW59800   4.289   9.246   5.654
15914SOL    HW159801   4.361   9.288   5.710
15914SOL    HW259802   4.317   9.245   5.558
15915SOL     OW59803   5.004   9.756   7.306
15915SOL    HW159804   5.090   9.741   7.355
15915SOL    HW259805   4.947   9.674   7.311
15916SOL     OW59806   4.198   9.470   6.521
15916SOL    HW159807   4.228   9.564   6.505
15916SOL    HW259808   4.259   9.407   6.472
15917SOL     OW59809   5.375   9.558   6.667
15917SOL    HW159810   5.410   9.651   6.671
15917SOL    HW259811   5.275   9.560   6.662
15918SOL     OW59812   4.710   9.634   5.955
15918SOL    HW159813   4.650   9.687   6.015
15918SOL    HW259814   4.762   9.568   6.009
15919SOL     OW59815   4.730   9.830   7.182
15919SOL    HW159816   4.765   9.744   7.217
15919SOL    HW259817   4.790   9.905   7.212
15920SOL     OW59818   4.776   9.483   5.737
15920SOL    HW159819   4.863   9.441   5.764
15920SOL    HW259820   4.747   9.547   5.808
15921SOL     OW59821   5.143   0.006   6.852
15921SOL    HW159822   5.153   0.105   6.858
15921SOL    HW259823   5.229   9.963   6.880
15922SOL     OW59824   5.445   9.824   6.696
15922SOL    HW159825   5.533   9.871   6.684
15922SOL    HW259826   5.411   9.840   6.788
15923SOL     OW59827   4.579   9.769   6.157
15923SOL    HW159828   4.661   9.791   6.209
15923SOL    HW259829   4.524   9.852   6.145
15924SOL     OW59830   4.794   9.571   7.303
15924SOL    HW159831   4.814   9.562   7.401
15924SOL    HW259832   4.702   9.535   7.285
15925SOL     OW59833   5.376   9.859   5.808
15925SOL    HW159834   5.352   9.769   5.770
15925SOL    HW259835   5.447   9.847   5.877
15926SOL     OW59836   4.428   9.310   7.206
15926SOL    HW159837   4.444   9.211   7.207
15926SOL    HW259838   4.445   9.348   7.296
15927SOL     OW59839   5.412   9.846   6.422
15927SOL    HW159840   5.369   9.929   6.386
15927SOL    HW259841   5.409   9.848   6.522
15928SOL     OW59842   5.031   9.241   6.439
15928SOL    HW159843   4.989   9.332   6.447
15928SOL    HW259844   5.118   9.249   6.391
15929SOL     OW59845   5.452   9.431   7.355
15929SOL    HW159846   5.390   9.462   7.427
15929SOL    HW259847   5.514   9.362   7.392
15930SOL     OW59848   4.019   9.376   6.292
15930SOL    HW159849   4.077   9.402   6.369
15930SOL    HW259850   4.059   9.297   6.246
15931SOL     OW59851   4.069   9.416   6.769
15931SOL    HW159852   4.041   9.320   6.771
15931SOL    HW259853   4.121   9.433   6.686
15932SOL     OW59854   4.632   0.319   6.779
15932SOL    HW159855   4.634   0.223   6.749
15932SOL    HW259856   4.540   0.342   6.811
15933SOL     OW59857   5.077   9.667   5.967
15933SOL    HW159858   5.049   9.746   5.913
15933SOL    HW259859   5.177   9.670   5.980
15934SOL     OW59860   3.903   9.520   6.971
15934SOL    HW159861   3.972   9.496   6.903
15934SOL    HW259862   3.812   9.499   6.936
15935SOL     OW59863   4.644   0.052   6.691
15935SOL    HW159864   4.684   9.979   6.636
15935SOL    HW259865   4.632   0.020   6.785
15936SOL     OW59866   5.344   9.634   6.025
15936SOL    HW159867   5.442   9.617   6.012
15936SOL    HW259868   5.323   9.634   6.123
15937SOL     OW59869   4.677   0.289   6.089
15937SOL    HW159870   4.728   0.213   6.130
15937SOL    HW259871   4.609   0.322   6.155
15938SOL     OW59872   3.757   9.526   5.935
15938SOL    HW159873   3.742   9.436   5.976
15938SOL    HW259874   3.827   9.575   5.988
15939SOL     OW59875   4.639   9.973   6.958
15939SOL    HW159876   4.570   0.023   7.010
15939SOL    HW259877   4.673   9.896   7.013
15940SOL     OW59878   4.008   9.695   6.487
15940SOL    HW159879   4.071   9.702   6.410
15940SOL    HW259880   4.031   9.615   6.542
15941SOL     OW59881   4.488   9.312   6.018
15941SOL    HW159882   4.521   9.322   5.924
15941SOL    HW259883   4.462   9.402   6.054
15942SOL     OW59884   5.319   9.494   7.114
15942SOL    HW159885   5.273   9.583   7.114
15942SOL    HW259886   5.365   9.482   7.202
15943SOL     OW59887   4.948   9.505   6.464
15943SOL    HW159888   4.976   9.561   6.386
15943SOL    HW259889   5.003   9.531   6.544
15944SOL     OW59890   5.273   9.222   7.107
15944SOL    HW159891   5.248   9.196   7.014
15944SOL    HW259892   5.285   9.321   7.113
15945SOL     OW59893   4.411   9.546   6.170
15945SOL    HW159894   4.421   9.487   6.250
15945SOL    HW259895   4.479   9.619   6.174
15946SOL     OW59896   5.033   9.860   6.651
15946SOL    HW159897   5.049   9.912   6.567
15946SOL    HW259898   5.071   9.910   6.729
15947SOL     OW59899   5.316   9.242   6.034
15947SOL    HW159900   5.351   9.167   5.977
15947SOL    HW259901   5.232   9.278   5.993
15948SOL     OW59902   4.809   9.834   6.294
15948SOL    HW159903   4.890   9.778   6.277
15948SOL    HW259904   4.793   9.842   6.393
15949SOL     OW59905   5.443   9.801   7.258
15949SOL    HW159906   5.410   9.894   7.238
15949SOL    HW259907   5.540   9.804   7.280
15950SOL     OW59908   5.100   9.596   6.677
15950SOL    HW159909   5.078   9.693   6.669
15950SOL    HW259910   5.079   9.564   6.770
15951SOL     OW59911   5.243   9.717   7.422
15951SOL    HW159912   5.318   9.742   7.361
15951SOL    HW259913   5.266   9.632   7.470
15952SOL     OW59914   5.329   9.579   5.753
15952SOL    HW159915   5.321   9.589   5.852
15952SOL    HW259916   5.374   9.492   5.732
15953SOL     OW59917   3.884   9.559   7.241
15953SOL    HW159918   3.891   9.555   7.142
15953SOL    HW259919   3.790   9.539   7.269
15954SOL     OW59920   3.922   9.589   6.155
15954SOL    HW159921   3.858   9.631   6.219
15954SOL    HW259922   3.956   9.503   6.195
15955SOL     OW59923   5.474   9.429   6.893
15955SOL    HW159924   5.412   9.453   6.968
15955SOL    HW259925   5.438   9.466   6.808
15956SOL     OW59926   3.768   9.671   6.366
15956SOL    HW159927   3.702   9.744   6.384
15956SOL    HW259928   3.852   9.688   6.418
15957SOL     OW59929   4.881   9.923   5.587
15957SOL    HW159930   4.845   9.999   5.534
15957SOL    HW259931   4.924   9.856   5.526
15958SOL     OW59932   4.685   9.880   5.785
15958SOL    HW159933   4.754   9.883   5.712
15958SOL    HW259934   4.698   9.797   5.839
15959SOL     OW59935   5.068   9.384   5.964
15959SOL    HW159936   4.988   9.366   6.021
15959SOL    HW259937   5.079   9.483   5.953
15960SOL     OW59938   5.151   9.719   7.071
15960SOL    HW159939   5.095   9.752   7.147
15960SOL    HW259940   5.098   9.654   7.016
15961SOL     OW59941   3.768   9.352   5.705
15961SOL    HW159942   3.856   9.308   5.691
15961SOL    HW259943   3.777   9.424   5.774
15962SOL     OW59944   4.839   9.463   6.132
15962SOL    HW159945   4.908   9.521   6.175
15962SOL    HW259946   4.777   9.426   6.201
15963SOL     OW59947   4.372   9.336   6.352
15963SOL    HW159948   4.366   9.278   6.271
15963SOL    HW259949   4.445   9.302   6.412
15964SOL     OW59950   3.940   9.171   5.935
15964SOL    HW159951   4.011   9.176   6.006
15964SOL    HW259952   3.854   9.206   5.970
15965SOL     OW59953   5.451   9.442   6.424
15965SOL    HW159954   5.433   9.476   6.516
15965SOL    HW259955   5.550   9.434   6.410
15966SOL     OW59956   5.008   9.898   5.835
15966SOL    HW159957   4.981   9.975   5.892
15966SOL    HW259958   4.964   9.905   5.745
15967SOL     OW59959   5.052   9.504   6.935
15967SOL    HW159960   5.116   9.448   6.987
15967SOL    HW259961   4.968   9.452   6.918
15968SOL     OW59962   3.721   9.288   6.061
15968SOL    HW159963   3.624   9.274   6.040
15968SOL    HW259964   3.735   9.284   6.159
15969SOL     OW59965   4.994   9.369   7.290
15969SOL    HW159966   5.029   9.362   7.384
15969SOL    HW259967   4.926   9.442   7.285
15970SOL     OW59968   4.772   9.830   6.572
15970SOL    HW159969   4.866   9.842   6.606
15970SOL    HW259970   4.738   9.740   6.597
15971SOL     OW59971   4.706   9.406   6.372
15971SOL    HW159972   4.787   9.441   6.419
15971SOL    HW259973   4.655   9.347   6.433
15972SOL     OW59974   5.294   9.635   6.297
15972SOL    HW159975   5.334   9.717   6.338
15972SOL    HW259976   5.340   9.554   6.334
15973SOL     OW59977   4.573   9.296   5.715
15973SOL    HW159978   4.622   9.209   5.715
15973SOL    HW259979   4.638   9.372   5.719
15974SOL     OW59980   4.173   9.664   6.268
15974SOL    HW159981   4.254   9.627   6.223
15974SOL    HW259982   4.094   9.651   6.208
15975SOL     OW59983   3.928   9.740   7.447
15975SOL    HW159984   3.920   9.688   7.362
15975SOL    HW259985   4.013   9.793   7.445
15976SOL     OW59986   5.260   9.284   6.303
15976SOL    HW159987   5.282   9.267   6.207
15976SOL    HW259988   5.335   9.334   6.346
15977SOL     OW59989   5.026   9.650   6.236
15977SOL    HW159990   5.028   9.665   6.137
15977SOL    HW259991   5.119   9.647   6.271
15978SOL     OW59992   5.343   9.854   8.796
15978SOL    HW159993   5.269   9.800   8.836
15978SOL    HW259994   5.431   9.815   8.822
15979SOL     OW59995   4.084   9.368   7.278
15979SOL    HW159996   4.014   9.439   7.272
15979SOL    HW259997   4.157   9.388   7.211
15980SOL     OW59998   4.874   9.308   8.690
15980SOL    HW159999   4.801   9.258   8.735
15980SOL    HW260000   4.926   9.246   8.630
15981SOL     OW60001   4.231   9.262   7.487
15981SOL    HW160002   4.322   9.304   7.488
15981SOL    HW260003   4.176   9.301   7.414
15982SOL     OW60004   4.451   9.798   7.937
15982SOL    HW160005   4.484   9.884   7.897
15982SOL    HW260006   4.385   9.755   7.876
15983SOL     OW60007   4.928   9.788   9.104
15983SOL    HW160008   5.015   9.783   9.151
15983SOL    HW260009   4.879   9.701   9.115
15984SOL     OW60010   4.264   9.474   8.383
15984SOL    HW160011   4.325   9.553   8.396
15984SOL    HW260012   4.316   9.398   8.344
15985SOL     OW60013   5.388   9.545   8.501
15985SOL    HW160014   5.420   9.640   8.504
15985SOL    HW260015   5.288   9.544   8.502
15986SOL     OW60016   4.733   9.546   7.773
15986SOL    HW160017   4.724   9.608   7.851
15986SOL    HW260018   4.733   9.451   7.806
15987SOL     OW60019   4.162   9.886   7.482
15987SOL    HW160020   4.161   9.986   7.493
15987SOL    HW260021   4.244   9.859   7.434
15988SOL     OW60022   4.707   9.952   8.967
15988SOL    HW160023   4.762   9.873   8.993
15988SOL    HW260024   4.735   0.032   9.021
15989SOL     OW60025   4.889   9.539   7.549
15989SOL    HW160026   4.958   9.468   7.564
15989SOL    HW260027   4.838   9.555   7.633
15990SOL     OW60028   4.092   9.777   8.556
15990SOL    HW160029   4.080   9.678   8.566
15990SOL    HW260030   4.014   9.824   8.599
15991SOL     OW60031   5.116   9.986   8.695
15991SOL    HW160032   5.125   0.086   8.692
15991SOL    HW260033   5.201   9.945   8.727
15992SOL     OW60034   4.070   9.542   7.832
15992SOL    HW160035   4.021   9.549   7.919
15992SOL    HW260036   4.084   9.634   7.794
15993SOL     OW60037   5.462   9.811   8.532
15993SOL    HW160038   5.553   9.850   8.541
15993SOL    HW260039   5.405   9.843   8.608
15994SOL     OW60040   4.667   9.655   8.022
15994SOL    HW160041   4.730   9.709   8.078
15994SOL    HW260042   4.589   9.712   7.995
15995SOL     OW60043   4.811   9.552   9.164
15995SOL    HW160044   4.846   9.558   9.257
15995SOL    HW260045   4.727   9.499   9.163
15996SOL     OW60046   5.312   9.848   7.654
15996SOL    HW160047   5.270   9.810   7.571
15996SOL    HW260048   5.336   9.773   7.716
15997SOL     OW60049   4.443   9.280   9.103
15997SOL    HW160050   4.467   9.188   9.072
15997SOL    HW260051   4.512   9.312   9.169
15998SOL     OW60052   5.464   9.846   8.250
15998SOL    HW160053   5.406   9.922   8.221
15998SOL    HW260054   5.460   9.838   8.350
15999SOL     OW60055   5.083   9.197   8.267
15999SOL    HW160056   5.039   9.287   8.275
15999SOL    HW260057   5.170   9.206   8.220
16000SOL     OW60058   5.434   9.471   9.215
16000SOL    HW160059   5.367   9.510   9.278
16000SOL    HW260060   5.493   9.407   9.265
16001SOL     OW60061   4.023   9.425   8.240
16001SOL    HW160062   4.104   9.448   8.294
16001SOL    HW260063   4.022   9.328   8.219
16002SOL     OW60064   4.080   9.466   8.594
16002SOL    HW160065   4.053   9.371   8.608
16002SOL    HW260066   4.147   9.472   8.520
16003SOL     OW60067   4.707   0.306   8.673
16003SOL    HW160068   4.765   0.229   8.698
16003SOL    HW260069   4.613   0.288   8.703
16004SOL     OW60070   5.074   9.649   7.833
16004SOL    HW160071   5.031   9.726   7.788
16004SOL    HW260072   5.173   9.656   7.824
16005SOL     OW60073   3.911   9.494   8.821
16005SOL    HW160074   3.976   9.497   8.745
16005SOL    HW260075   3.818   9.492   8.785
16006SOL     OW60076   4.683   9.957   8.531
16006SOL    HW160077   4.709   9.864   8.505
16006SOL    HW260078   4.619   9.954   8.608
16007SOL     OW60079   5.354   9.639   7.833
16007SOL    HW160080   5.449   9.614   7.814
16007SOL    HW260081   5.340   9.645   7.932
16008SOL     OW60082   4.521   9.616   7.619
16008SOL    HW160083   4.444   9.590   7.677
16008SOL    HW260084   4.607   9.595   7.665
16009SOL     OW60085   4.663   0.188   7.958
16009SOL    HW160086   4.617   0.123   7.898
16009SOL    HW260087   4.601   0.215   8.032
16010SOL     OW60088   3.734   9.573   7.835
16010SOL    HW160089   3.788   9.566   7.751
16010SOL    HW260090   3.795   9.586   7.913
16011SOL     OW60091   4.515   9.963   8.752
16011SOL    HW160092   4.483   0.057   8.762
16011SOL    HW260093   4.578   9.942   8.827
16012SOL     OW60094   4.078   9.898   8.300
16012SOL    HW160095   4.146   9.857   8.240
16012SOL    HW260096   4.083   9.856   8.390
16013SOL     OW60097   4.502   9.270   7.781
16013SOL    HW160098   4.459   9.202   7.722
16013SOL    HW260099   4.446   9.352   7.784
16014SOL     OW60100   5.316   9.513   8.971
16014SOL    HW160101   5.252   9.590   8.969
16014SOL    HW260102   5.354   9.502   9.063
16015SOL     OW60103   4.979   9.453   8.308
16015SOL    HW160104   5.000   9.514   8.232
16015SOL    HW260105   5.029   9.483   8.389
16016SOL     OW60106   5.070   9.327   7.585
16016SOL    HW160107   5.070   9.229   7.564
16016SOL    HW260108   5.047   9.340   7.681
16017SOL     OW60109   5.291   9.235   8.960
16017SOL    HW160110   5.274   9.203   8.867
16017SOL    HW260111   5.292   9.335   8.961
16018SOL     OW60112   4.426   9.509   8.068
16018SOL    HW160113   4.422   9.432   8.132
16018SOL    HW260114   4.516   9.551   8.072
16019SOL     OW60115   5.029   9.822   8.496
16019SOL    HW160116   5.044   9.875   8.413
16019SOL    HW260117   5.054   9.877   8.576
16020SOL     OW60118   5.285   9.270   7.843
16020SOL    HW160119   5.302   9.225   7.756
16020SOL    HW260120   5.190   9.303   7.845
16021SOL     OW60121   4.840   9.793   8.178
16021SOL    HW160122   4.930   9.753   8.164
16021SOL    HW260123   4.814   9.784   8.275
16022SOL     OW60124   5.413   9.868   9.189
16022SOL    HW160125   5.388   9.938   9.122
16022SOL    HW260126   5.509   9.845   9.178
16023SOL     OW60127   5.112   9.563   8.529
16023SOL    HW160128   5.086   9.659   8.518
16023SOL    HW260129   5.091   9.533   8.622
16024SOL     OW60130   5.166   9.751   9.225
16024SOL    HW160131   5.254   9.796   9.207
16024SOL    HW260132   5.180   9.678   9.292
16025SOL     OW60133   5.293   9.495   7.573
16025SOL    HW160134   5.318   9.520   7.666
16025SOL    HW260135   5.219   9.429   7.574
16026SOL     OW60136   3.885   9.396   9.075
16026SOL    HW160137   3.900   9.434   8.984
16026SOL    HW260138   3.787   9.397   9.096
16027SOL     OW60139   3.908   9.576   8.048
16027SOL    HW160140   3.885   9.665   8.088
16027SOL    HW260141   3.950   9.519   8.119
16028SOL     OW60142   4.085   9.789   7.730
16028SOL    HW160143   4.120   9.817   7.641
16028SOL    HW260144   4.028   9.861   7.768
16029SOL     OW60145   5.482   9.468   8.756
16029SOL    HW160146   5.411   9.485   8.823
16029SOL    HW260147   5.446   9.483   8.664
16030SOL     OW60148   3.890   9.530   7.616
16030SOL    HW160149   3.970   9.523   7.675
16030SOL    HW260150   3.901   9.608   7.554
16031SOL     OW60151   3.845   9.805   8.172
16031SOL    HW160152   3.760   9.835   8.214
16031SOL    HW260153   3.922   9.850   8.217
16032SOL     OW60154   4.860   9.927   7.464
16032SOL    HW160155   4.849   0.007   7.405
16032SOL    HW260156   4.917   9.859   7.418
16033SOL     OW60157   4.598   9.894   7.555
16033SOL    HW160158   4.693   9.897   7.524
16033SOL    HW260159   4.568   9.799   7.563
16034SOL     OW60160   5.023   9.382   7.847
16034SOL    HW160161   4.948   9.364   7.911
16034SOL    HW260162   5.040   9.480   7.842
16035SOL     OW60163   5.133   9.718   8.903
16035SOL    HW160164   5.065   9.758   8.964
16035SOL    HW260165   5.092   9.642   8.853
16036SOL     OW60166   3.762   9.303   7.532
16036SOL    HW160167   3.830   9.231   7.545
16036SOL    HW260168   3.799   9.390   7.565
16037SOL     OW60169   4.348   9.893   8.532
16037SOL    HW160170   4.392   9.913   8.620
16037SOL    HW260171   4.255   9.860   8.548
16038SOL     OW60172   4.799   9.400   8.019
16038SOL    HW160173   4.758   9.491   8.025
16038SOL    HW260174   4.772   9.346   8.099
16039SOL     OW60175   4.437   9.303   8.245
16039SOL    HW160176   4.405   9.209   8.237
16039SOL    HW260177   4.537   9.303   8.258
16040SOL     OW60178   3.754   0.136   8.557
16040SOL    HW160179   3.707   0.182   8.632
16040SOL    HW260180   3.709   0.159   8.471
16041SOL     OW60181   3.987   9.266   7.839
16041SOL    HW160182   4.025   9.359   7.841
16041SOL    HW260183   3.891   9.269   7.868
16042SOL     OW60184   5.470   9.436   8.252
16042SOL    HW160185   5.445   9.463   8.345
16042SOL    HW260186   5.570   9.428   8.246
16043SOL     OW60187   4.976   9.874   7.712
16043SOL    HW160188   4.984   9.959   7.764
16043SOL    HW260189   4.928   9.891   7.626
16044SOL     OW60190   4.240   9.654   9.135
16044SOL    HW160191   4.283   9.597   9.065
16044SOL    HW260192   4.286   9.743   9.138
16045SOL     OW60193   4.272   0.033   7.759
16045SOL    HW160194   4.237   0.081   7.679
16045SOL    HW260195   4.195   9.995   7.811
16046SOL     OW60196   5.046   9.483   8.797
16046SOL    HW160197   5.072   9.442   8.885
16046SOL    HW260198   4.976   9.426   8.753
16047SOL     OW60199   3.721   9.305   7.889
16047SOL    HW160200   3.628   9.268   7.881
16047SOL    HW260201   3.718   9.404   7.877
16048SOL     OW60202   5.017   9.385   9.088
16048SOL    HW160203   5.067   9.367   9.173
16048SOL    HW260204   4.943   9.449   9.106
16049SOL     OW60205   4.783   9.714   8.446
16049SOL    HW160206   4.872   9.752   8.471
16049SOL    HW260207   4.785   9.614   8.458
16050SOL     OW60208   4.726   9.325   8.284
16050SOL    HW160209   4.814   9.370   8.301
16050SOL    HW260210   4.707   9.260   8.357
16051SOL     OW60211   5.344   9.641   8.112
16051SOL    HW160212   5.385   9.722   8.153
16051SOL    HW260213   5.384   9.559   8.152
16052SOL     OW60214   4.484   9.380   7.467
16052SOL    HW160215   4.557   9.316   7.490
16052SOL    HW260216   4.499   9.467   7.515
16053SOL     OW60217   4.268   9.764   8.151
16053SOL    HW160218   4.285   9.667   8.170
16053SOL    HW260219   4.335   9.797   8.084
16054SOL     OW60220   4.455   9.671   8.412
16054SOL    HW160221   4.552   9.686   8.392
16054SOL    HW260222   4.415   9.756   8.445
16055SOL     OW60223   3.879   9.917   8.668
16055SOL    HW160224   3.908   9.939   8.761
16055SOL    HW260225   3.843   9.999   8.624
16056SOL     OW60226   4.346   9.512   7.810
16056SOL    HW160227   4.246   9.513   7.808
16056SOL    HW260228   4.377   9.511   7.905
16057SOL     OW60229   5.316   9.241   8.122
16057SOL    HW160230   5.305   9.262   8.025
16057SOL    HW260231   5.373   9.310   8.165
16058SOL     OW60232   5.064   9.638   8.113
16058SOL    HW160233   5.046   9.642   8.015
16058SOL    HW260234   5.163   9.645   8.129
16059SOL     OW60235   4.064   9.486   9.260
16059SOL    HW160236   4.002   9.455   9.188
16059SOL    HW260237   4.126   9.555   9.222
16060SOL     OW60238   4.254   9.284   9.308
16060SOL    HW160239   4.314   9.293   9.228
16060SOL    HW260240   4.184   9.355   9.305
16061SOL     OW60241   4.445   9.856   9.851
16061SOL    HW160242   4.427   9.924   9.780
16061SOL    HW260243   4.372   9.859   9.919
16062SOL     OW60244   4.738   9.580   9.641
16062SOL    HW160245   4.730   9.667   9.690
16062SOL    HW260246   4.766   9.508   9.705
16063SOL     OW60247   4.898   9.542   9.415
16063SOL    HW160248   4.966   9.471   9.434
16063SOL    HW260249   4.852   9.568   9.499
16064SOL     OW60250   4.705   9.809   9.784
16064SOL    HW160251   4.758   9.832   9.866
16064SOL    HW260252   4.607   9.821   9.804
16065SOL     OW60253   5.406   9.894   9.464
16065SOL    HW160254   5.403   9.881   9.365
16065SOL    HW260255   5.426   9.807   9.509
16066SOL     OW60256   5.035   9.664   9.678
16066SOL    HW160257   4.984   9.736   9.631
16066SOL    HW260258   5.133   9.675   9.659
16067SOL     OW60259   5.310   9.661   9.652
16067SOL    HW160260   5.402   9.628   9.634
16067SOL    HW260261   5.305   9.696   9.746
16068SOL     OW60262   4.542   9.594   9.454
16068SOL    HW160263   4.455   9.565   9.495
16068SOL    HW260264   4.615   9.589   9.522
16069SOL     OW60265   4.624   0.180   9.783
16069SOL    HW160266   4.559   0.121   9.736
16069SOL    HW260267   4.607   0.177   9.881
16070SOL     OW60268   5.084   9.319   9.379
16070SOL    HW160269   5.156   9.253   9.398
16070SOL    HW260270   4.995   9.273   9.375
16071SOL     OW60271   5.296   9.288   9.701
16071SOL    HW160272   5.310   9.243   9.613
16071SOL    HW260273   5.205   9.329   9.702
16072SOL     OW60274   5.243   9.549   9.399
16072SOL    HW160275   5.260   9.582   9.492
16072SOL    HW260276   5.185   9.468   9.402
16073SOL     OW60277   3.848   9.465   9.432
16073SOL    HW160278   3.935   9.470   9.382
16073SOL    HW260279   3.788   9.538   9.400
16074SOL     OW60280   4.802   9.945   9.305
16074SOL    HW160281   4.790   0.034   9.261
16074SOL    HW260282   4.849   9.883   9.242
16075SOL     OW60283   4.566   9.884   9.437
16075SOL    HW160284   4.652   9.902   9.389
16075SOL    HW260285   4.548   9.785   9.436
16076SOL     OW60286   5.048   9.398   9.740
16076SOL    HW160287   5.018   9.387   9.835
16076SOL    HW260288   5.040   9.494   9.713
16077SOL     OW60289   3.761   9.207   9.466
16077SOL    HW160290   3.836   9.148   9.437
16077SOL    HW260291   3.792   9.303   9.463
16078SOL     OW60292   4.055   9.265   9.588
16078SOL    HW160293   4.014   9.353   9.615
16078SOL    HW260294   4.100   9.224   9.668
16079SOL     OW60295   5.381   9.520   0.048
16079SOL    HW160296   5.351   9.510   0.142
16079SOL    HW260297   5.474   9.483   0.039
16080SOL     OW60298   4.887   9.866   9.567
16080SOL    HW160299   4.813   9.871   9.634
16080SOL    HW260300   4.855   9.899   9.479
16081SOL     OW60301   4.193   0.131   9.560
16081SOL    HW160302   4.160   0.093   9.474
16081SOL    HW260303   4.116   0.146   9.622
16082SOL     OW60304   5.295   9.744   9.917
16082SOL    HW160305   5.312   9.833   9.960
16082SOL    HW260306   5.335   9.672   9.973
16083SOL     OW60307   4.621   9.382   9.280
16083SOL    HW160308   4.693   9.326   9.320
16083SOL    HW260309   4.595   9.455   9.343
16084SOL     OW60310   5.308   9.255   9.975
16084SOL    HW160311   5.290   9.260   9.876
16084SOL    HW260312   5.317   9.347   0.012
16085SOL     OW60313   5.027   9.679   9.952
16085SOL    HW160314   5.009   9.671   9.854
16085SOL    HW260315   5.123   9.700   9.966
16086SOL     OW60316   6.655   1.417   0.756
16086SOL    HW160317   6.743   1.465   0.760
16086SOL    HW260318   6.599   1.455   0.683
16087SOL     OW60319   7.163   1.291   0.554
16087SOL    HW160320   7.179   1.352   0.631
16087SOL    HW260321   7.247   1.240   0.533
16088SOL     OW60322   7.167   0.642   1.463
16088SOL    HW160323   7.078   0.606   1.491
16088SOL    HW260324   7.222   0.660   1.544
16089SOL     OW60325   5.868   0.068   9.943
16089SOL    HW160326   5.786   0.089   9.996
16089SOL    HW260327   5.873   0.129   9.864
16090SOL     OW60328   6.904   1.545   0.804
16090SOL    HW160329   6.916   1.638   0.837
16090SOL    HW260330   6.994   1.506   0.780
16091SOL     OW60331   6.734   0.085   1.379
16091SOL    HW160332   6.676   0.028   1.438
16091SOL    HW260333   6.813   0.032   1.348
16092SOL     OW60334   6.503   0.892   1.787
16092SOL    HW160335   6.463   0.846   1.708
16092SOL    HW260336   6.430   0.929   1.844
16093SOL     OW60337   6.090   1.551   0.428
16093SOL    HW160338   6.011   1.501   0.394
16093SOL    HW260339   6.145   1.492   0.487
16094SOL     OW60340   6.198   0.015   0.151
16094SOL    HW160341   6.284   0.055   0.120
16094SOL    HW260342   6.131   0.088   0.167
16095SOL     OW60343   7.113   1.070   1.551
16095SOL    HW160344   7.019   1.091   1.524
16095SOL    HW260345   7.173   1.080   1.472
16096SOL     OW60346   6.974   1.057   1.226
16096SOL    HW160347   6.922   1.062   1.312
16096SOL    HW260348   7.022   1.144   1.211
16097SOL     OW60349   6.469   1.303   1.524
16097SOL    HW160350   6.428   1.390   1.498
16097SOL    HW260351   6.508   1.259   1.443
16098SOL     OW60352   6.124   1.180   0.722
16098SOL    HW160353   6.057   1.170   0.795
16098SOL    HW260354   6.213   1.145   0.753
16099SOL     OW60355   6.196   0.650   0.599
16099SOL    HW160356   6.144   0.716   0.544
16099SOL    HW260357   6.198   0.562   0.552
16100SOL     OW60358   6.839   0.525   1.812
16100SOL    HW160359   6.939   0.532   1.822
16100SOL    HW260360   6.805   0.448   1.867
16101SOL     OW60361   6.018   1.432   0.089
16101SOL    HW160362   6.118   1.439   0.091
16101SOL    HW260363   5.978   1.513   0.131
16102SOL     OW60364   6.113   0.299   1.047
16102SOL    HW160365   6.169   0.380   1.031
16102SOL    HW260366   6.162   0.218   1.016
16103SOL     OW60367   6.368   1.744   0.700
16103SOL    HW160368   6.410   1.667   0.653
16103SOL    HW260369   6.333   1.809   0.633
16104SOL     OW60370   7.371   1.436   0.195
16104SOL    HW160371   7.333   1.385   0.273
16104SOL    HW260372   7.379   1.532   0.219
16105SOL     OW60373   7.175   0.349   1.123
16105SOL    HW160374   7.220   0.434   1.149
16105SOL    HW260375   7.076   0.363   1.117
16106SOL     OW60376   6.624   0.278   0.321
16106SOL    HW160377   6.663   0.369   0.309
16106SOL    HW260378   6.596   0.266   0.416
16107SOL     OW60379   5.706   1.023   1.591
16107SOL    HW160380   5.802   1.037   1.614
16107SOL    HW260381   5.659   0.980   1.668
16108SOL     OW60382   6.509   0.627   1.600
16108SOL    HW160383   6.529   0.543   1.651
16108SOL    HW260384   6.594   0.663   1.560
16109SOL     OW60385   7.182   1.456   0.789
16109SOL    HW160386   7.190   1.476   0.886
16109SOL    HW260387   7.239   1.520   0.737
16110SOL     OW60388   5.949   1.093   0.517
16110SOL    HW160389   6.009   1.125   0.590
16110SOL    HW260390   5.964   1.149   0.435
16111SOL     OW60391   6.800   0.211   0.113
16111SOL    HW160392   6.874   0.153   0.147
16111SOL    HW260393   6.736   0.231   0.188
16112SOL     OW60394   5.919   0.559   1.269
16112SOL    HW160395   5.914   0.460   1.253
16112SOL    HW260396   5.838   0.603   1.232
16113SOL     OW60397   6.968   0.791   1.324
16113SOL    HW160398   6.986   0.881   1.286
16113SOL    HW260399   7.051   0.754   1.365
16114SOL     OW60400   5.906   0.368   0.487
16114SOL    HW160401   5.862   0.371   0.577
16114SOL    HW260402   5.846   0.409   0.419
16115SOL     OW60403   7.123   1.722   1.345
16115SOL    HW160404   7.049   1.716   1.278
16115SOL    HW260405   7.211   1.712   1.299
16116SOL     OW60406   7.295   0.573   1.219
16116SOL    HW160407   7.391   0.547   1.229
16116SOL    HW260408   7.258   0.601   1.307
16117SOL     OW60409   7.370   1.718   1.195
16117SOL    HW160410   7.390   1.774   1.275
16117SOL    HW260411   7.455   1.696   1.147
16118SOL     OW60412   6.446   0.507   0.674
16118SOL    HW160413   6.507   0.552   0.739
16118SOL    HW260414   6.372   0.570   0.649
16119SOL     OW60415   6.776   0.932   0.139
16119SOL    HW160416   6.799   0.870   0.214
16119SOL    HW260417   6.685   0.909   0.104
16120SOL     OW60418   6.527   0.406   1.776
16120SOL    HW160419   6.599   0.386   1.843
16120SOL    HW260420   6.439   0.415   1.822
16121SOL     OW60421   7.275   0.675   0.385
16121SOL    HW160422   7.224   0.590   0.400
16121SOL    HW260423   7.343   0.688   0.457
16122SOL     OW60424   6.551   1.793   0.121
16122SOL    HW160425   6.536   1.765   0.026
16122SOL    HW260426   6.530   1.717   0.182
16123SOL     OW60427   6.336   0.128   1.741
16123SOL    HW160428   6.319   0.031   1.723
16123SOL    HW260429   6.328   0.145   1.839
16124SOL     OW60430   7.248   0.682   0.968
16124SOL    HW160431   7.211   0.775   0.973
16124SOL    HW260432   7.261   0.646   1.060
16125SOL     OW60433   6.637   1.302   1.754
16125SOL    HW160434   6.690   1.218   1.742
16125SOL    HW260435   6.575   1.314   1.676
16126SOL     OW60436   6.916   0.012   0.909
16126SOL    HW160437   6.872   0.102   0.902
16126SOL    HW260438   6.998   0.011   0.852
16127SOL     OW60439   7.298   0.288   1.785
16127SOL    HW160440   7.267   0.301   1.879
16127SOL    HW260441   7.288   0.192   1.759
16128SOL     OW60442   5.490   0.731   0.643
16128SOL    HW160443   5.533   0.660   0.698
16128SOL    HW260444   5.518   0.821   0.676
16129SOL     OW60445   5.893   0.215   0.892
16129SOL    HW160446   5.963   0.266   0.942
16129SOL    HW260447   5.932   0.128   0.860
16130SOL     OW60448   5.913   0.285   1.239
16130SOL    HW160449   5.905   0.194   1.278
16130SOL    HW260450   5.985   0.286   1.170
16131SOL     OW60451   6.641   0.838   0.999
16131SOL    HW160452   6.606   0.919   0.953
16131SOL    HW260453   6.627   0.758   0.941
16132SOL     OW60454   7.028   1.331   1.233
16132SOL    HW160455   6.991   1.377   1.152
16132SOL    HW260456   6.965   1.344   1.310
16133SOL     OW60457   7.292   1.362   1.274
16133SOL    HW160458   7.310   1.411   1.359
16133SOL    HW260459   7.193   1.348   1.265
16134SOL     OW60460   6.536   1.161   1.292
16134SOL    HW160461   6.545   1.062   1.300
16134SOL    HW260462   6.465   1.184   1.225
16135SOL     OW60463   7.092   0.878   0.411
16135SOL    HW160464   7.159   0.804   0.403
16135SOL    HW260465   7.111   0.947   0.341
16136SOL     OW60466   6.898   0.411   0.501
16136SOL    HW160467   6.848   0.448   0.423
16136SOL    HW260468   6.995   0.434   0.493
16137SOL     OW60469   5.895   0.678   1.515
16137SOL    HW160470   5.900   0.617   1.436
16137SOL    HW260471   5.832   0.641   1.582
16138SOL     OW60472   5.663   0.298   1.373
16138SOL    HW160473   5.744   0.307   1.315
16138SOL    HW260474   5.585   0.338   1.326
16139SOL     OW60475   6.559   0.885   1.269
16139SOL    HW160476   6.580   0.862   1.174
16139SOL    HW260477   6.478   0.833   1.298
16140SOL     OW60478   7.174   0.445   0.512
16140SOL    HW160479   7.268   0.414   0.504
16140SOL    HW260480   7.157   0.475   0.606
16141SOL     OW60481   6.425   1.409   0.911
16141SOL    HW160482   6.511   1.414   0.861
16141SOL    HW260483   6.366   1.485   0.883
16142SOL     OW60484   6.512   1.311   0.180
16142SOL    HW160485   6.558   1.288   0.266
16142SOL    HW260486   6.566   1.379   0.131
16143SOL     OW60487   7.334   1.659   0.676
16143SOL    HW160488   7.281   1.729   0.723
16143SOL    HW260489   7.370   1.695   0.590
16144SOL     OW60490   6.701   0.906   0.547
16144SOL    HW160491   6.754   0.925   0.629
16144SOL    HW260492   6.620   0.965   0.545
16145SOL     OW60493   6.400   1.654   1.663
16145SOL    HW160494   6.346   1.599   1.599
16145SOL    HW260495   6.400   1.611   1.753
16146SOL     OW60496   6.829   0.970   0.784
16146SOL    HW160497   6.835   0.909   0.863
16146SOL    HW260498   6.770   1.048   0.806
16147SOL     OW60499   5.928   1.134   0.918
16147SOL    HW160500   5.845   1.186   0.897
16147SOL    HW260501   5.929   1.109   1.015
16148SOL     OW60502   6.450   1.040   0.530
16148SOL    HW160503   6.414   0.950   0.505
16148SOL    HW260504   6.420   1.063   0.623
16149SOL     OW60505   6.824   1.384   1.410
16149SOL    HW160506   6.874   1.453   1.462
16149SOL    HW260507   6.739   1.424   1.374
16150SOL     OW60508   5.568   0.293   0.522
16150SOL    HW160509   5.570   0.193   0.517
16150SOL    HW260510   5.643   0.325   0.579
16151SOL     OW60511   7.155   1.759   0.103
16151SOL    HW160512   7.241   1.748   0.152
16151SOL    HW260513   7.168   1.817   0.023
16152SOL     OW60514   6.361   0.738   1.391
16152SOL    HW160515   6.281   0.773   1.439
16152SOL    HW260516   6.419   0.688   1.455
16153SOL     OW60517   5.597   1.832   1.391
16153SOL    HW160518   5.555   1.923   1.394
16153SOL    HW260519   5.592   1.789   1.481
16154SOL     OW60520   5.858   0.543   0.954
16154SOL    HW160521   5.927   0.513   0.888
16154SOL    HW260522   5.902   0.596   1.027
16155SOL     OW60523   5.927   1.666   0.190
16155SOL    HW160524   5.914   1.731   0.115
16155SOL    HW260525   5.966   1.714   0.269
16156SOL     OW60526   6.922   1.688   1.162
16156SOL    HW160527   6.948   1.732   1.077
16156SOL    HW260528   6.889   1.595   1.143
16157SOL     OW60529   5.644   1.255   0.969
16157SOL    HW160530   5.565   1.266   0.910
16157SOL    HW260531   5.629   1.177   1.031
16158SOL     OW60532   6.223   0.013   0.423
16158SOL    HW160533   6.221   9.997   0.324
16158SOL    HW260534   6.317   0.035   0.451
16159SOL     OW60535   7.095   0.339   1.589
16159SOL    HW160536   7.035   0.418   1.586
16159SOL    HW260537   7.162   0.350   1.663
16160SOL     OW60538   6.812   0.270   0.916
16160SOL    HW160539   6.823   0.340   0.845
16160SOL    HW260540   6.841   0.307   1.004
16161SOL     OW60541   7.010   0.054   0.201
16161SOL    HW160542   7.074   0.060   0.124
16161SOL    HW260543   7.017   9.965   0.244
16162SOL     OW60544   7.186   0.073   1.639
16162SOL    HW160545   7.188   0.016   1.557
16162SOL    HW260546   7.140   0.159   1.618
16163SOL     OW60547   6.258   0.285   0.749
16163SOL    HW160548   6.259   0.205   0.809
16163SOL    HW260549   6.347   0.330   0.752
16164SOL     OW60550   6.788   0.656   1.160
16164SOL    HW160551   6.746   0.726   1.102
16164SOL    HW260552   6.851   0.700   1.224
16165SOL     OW60553   7.157   0.015   0.497
16165SOL    HW160554   7.135   9.939   0.436
16165SOL    HW260555   7.074   0.067   0.517
16166SOL     OW60556   5.700   1.421   1.200
16166SOL    HW160557   5.699   1.384   1.107
16166SOL    HW260558   5.609   1.414   1.241
16167SOL     OW60559   6.625   0.603   0.860
16167SOL    HW160560   6.710   0.566   0.821
16167SOL    HW260561   6.599   0.549   0.940
16168SOL     OW60562   7.297   0.694   1.708
16168SOL    HW160563   7.308   0.791   1.686
16168SOL    HW260564   7.383   0.659   1.747
16169SOL     OW60565   6.909   0.408   1.132
16169SOL    HW160566   6.866   0.499   1.138
16169SOL    HW260567   6.907   0.365   1.222
16170SOL     OW60568   7.107   0.528   1.824
16170SOL    HW160569   7.178   0.588   1.787
16170SOL    HW260570   7.147   0.471   1.896
16171SOL     OW60571   6.842   0.779   0.356
16171SOL    HW160572   6.783   0.816   0.427
16171SOL    HW260573   6.937   0.807   0.373
16172SOL     OW60574   7.082   0.983   0.668
16172SOL    HW160575   7.080   0.952   0.573
16172SOL    HW260576   6.990   0.978   0.706
16173SOL     OW60577   7.350   0.952   1.630
16173SOL    HW160578   7.262   0.997   1.620
16173SOL    HW260579   7.405   0.969   1.548
16174SOL     OW60580   7.138   0.294   0.276
16174SOL    HW160581   7.137   0.332   0.369
16174SOL    HW260582   7.080   0.213   0.272
16175SOL     OW60583   6.262   1.516   1.473
16175SOL    HW160584   6.189   1.584   1.470
16175SOL    HW260585   6.255   1.457   1.393
16176SOL     OW60586   5.692   0.303   1.647
16176SOL    HW160587   5.672   0.299   1.549
16176SOL    HW260588   5.615   0.265   1.698
16177SOL     OW60589   5.589   1.715   1.639
16177SOL    HW160590   5.670   1.730   1.696
16177SOL    HW260591   5.507   1.721   1.697
16178SOL     OW60592   5.746   0.367   0.712
16178SOL    HW160593   5.703   0.445   0.756
16178SOL    HW260594   5.802   0.317   0.778
16179SOL     OW60595   6.966   1.581   1.526
16179SOL    HW160596   6.900   1.643   1.569
16179SOL    HW260597   7.025   1.633   1.464
16180SOL     OW60598   7.258   0.263   1.374
16180SOL    HW160599   7.200   0.297   1.449
16180SOL    HW260600   7.215   0.286   1.287
16181SOL     OW60601   5.938   1.315   1.309
16181SOL    HW160602   5.957   1.338   1.405
16181SOL    HW260603   5.856   1.362   1.278
16182SOL     OW60604   6.752   1.543   1.843
16182SOL    HW160605   6.714   1.456   1.812
16182SOL    HW260606   6.754   1.608   1.766
16183SOL     OW60607   6.248   1.362   0.552
16183SOL    HW160608   6.261   1.306   0.470
16183SOL    HW260609   6.197   1.309   0.620
16184SOL     OW60610   5.951   0.852   0.884
16184SOL    HW160611   5.958   0.952   0.879
16184SOL    HW260612   6.043   0.812   0.876
16185SOL     OW60613   5.610   0.570   0.842
16185SOL    HW160614   5.538   0.609   0.899
16185SOL    HW260615   5.696   0.572   0.892
16186SOL     OW60616   6.034   1.255   0.307
16186SOL    HW160617   6.130   1.227   0.307
16186SOL    HW260618   6.014   1.304   0.222
16187SOL     OW60619   6.936   0.149   0.568
16187SOL    HW160620   6.856   0.102   0.604
16187SOL    HW260621   6.913   0.244   0.548
16188SOL     OW60622   6.916   0.548   1.548
16188SOL    HW160623   6.885   0.552   1.643
16188SOL    HW260624   6.849   0.593   1.489
16189SOL     OW60625   5.645   0.095   0.107
16189SOL    HW160626   5.685   0.080   0.197
16189SOL    HW260627   5.591   0.016   0.080
16190SOL     OW60628   5.902   1.076   1.185
16190SOL    HW160629   5.893   1.004   1.254
16190SOL    HW260630   5.918   1.164   1.231
16191SOL     OW60631   7.165   1.036   0.206
16191SOL    HW160632   7.263   1.053   0.195
16191SOL    HW260633   7.127   1.005   0.119
16192SOL     OW60634   6.165   0.683   1.196
16192SOL    HW160635   6.228   0.704   1.270
16192SOL    HW260636   6.079   0.649   1.233
16193SOL     OW60637   6.710   1.037   1.678
16193SOL    HW160638   6.625   0.995   1.710
16193SOL    HW260639   6.787   0.976   1.698
16194SOL     OW60640   6.561   0.271   0.597
16194SOL    HW160641   6.521   0.362   0.610
16194SOL    HW260642   6.574   0.227   0.686
16195SOL     OW60643   6.771   1.731   1.642
16195SOL    HW160644   6.693   1.750   1.582
16195SOL    HW260645   6.808   1.818   1.675
16196SOL     OW60646   6.238   0.079   0.939
16196SOL    HW160647   6.189   9.999   0.905
16196SOL    HW260648   6.318   0.050   0.990
16197SOL     OW60649   5.808   1.652   1.339
16197SOL    HW160650   5.774   1.577   1.283
16197SOL    HW260651   5.736   1.720   1.352
16198SOL     OW60652   6.641   1.160   0.860
16198SOL    HW160653   6.648   1.247   0.810
16198SOL    HW260654   6.671   1.173   0.954
16199SOL     OW60655   6.261   0.959   1.007
16199SOL    HW160656   6.248   0.876   0.953
16199SOL    HW260657   6.214   0.950   1.095
16200SOL     OW60658   5.630   1.040   1.138
16200SOL    HW160659   5.726   1.053   1.164
16200SOL    HW260660   5.624   0.964   1.073
16201SOL     OW60661   5.748   9.989   0.339
16201SOL    HW160662   5.833   0.035   0.362
16201SOL    HW260663   5.685   9.995   0.416
16202SOL     OW60664   6.267   0.689   1.724
16202SOL    HW160665   6.214   0.736   1.653
16202SOL    HW260666   6.352   0.654   1.685
16203SOL     OW60667   7.239   0.275   0.867
16203SOL    HW160668   7.202   0.298   0.957
16203SOL    HW260669   7.329   0.232   0.877
16204SOL     OW60670   6.358   1.212   1.088
16204SOL    HW160671   6.321   1.130   1.043
16204SOL    HW260672   6.381   1.280   1.018
16205SOL     OW60673   6.771   0.519   0.288
16205SOL    HW160674   6.787   0.614   0.314
16205SOL    HW260675   6.814   0.502   0.199
16206SOL     OW60676   7.116   1.434   1.694
16206SOL    HW160677   7.068   1.357   1.736
16206SOL    HW260678   7.054   1.482   1.631
16207SOL     OW60679   5.812   0.897   1.375
16207SOL    HW160680   5.850   0.819   1.425
16207SOL    HW260681   5.763   0.957   1.437
16208SOL     OW60682   6.286   1.466   0.121
16208SOL    HW160683   6.289   1.552   0.173
16208SOL    HW260684   6.367   1.412   0.142
16209SOL     OW60685   6.381   1.080   0.791
16209SOL    HW160686   6.469   1.119   0.819
16209SOL    HW260687   6.342   1.029   0.867
16210SOL     OW60688   6.476   1.519   0.571
16210SOL    HW160689   6.516   1.530   0.480
16210SOL    HW260690   6.393   1.463   0.565
16211SOL     OW60691   5.687   0.848   0.948
16211SOL    HW160692   5.783   0.838   0.921
16211SOL    HW260693   5.635   0.885   0.871
16212SOL     OW60694   5.574   0.908   1.793
16212SOL    HW160695   5.474   0.910   1.787
16212SOL    HW260696   5.601   0.863   1.879
16213SOL     OW60697   6.551   1.762   1.465
16213SOL    HW160698   6.499   1.720   1.540
16213SOL    HW260699   6.502   1.843   1.431
16214SOL     OW60700   6.742   1.189   1.110
16214SOL    HW160701   6.673   1.192   1.183
16214SOL    HW260702   6.820   1.135   1.141
16215SOL     OW60703   6.069   0.440   1.812
16215SOL    HW160704   6.136   0.429   1.739
16215SOL    HW260705   6.080   0.531   1.853
16216SOL     OW60706   7.146   0.942   1.013
16216SOL    HW160707   7.161   1.021   0.954
16216SOL    HW260708   7.088   0.969   1.090
16217SOL     OW60709   6.932   0.275   1.366
16217SOL    HW160710   6.973   0.302   1.453
16217SOL    HW260711   6.848   0.223   1.384
16218SOL     OW60712   5.572   0.015   0.551
16218SOL    HW160713   5.473   0.008   0.542
16218SOL    HW260714   5.603   9.961   0.629
16219SOL     OW60715   6.631   0.130   1.740
16219SOL    HW160716   6.706   0.191   1.766
16219SOL    HW260717   6.548   0.184   1.728
16220SOL     OW60718   5.951   1.570   1.705
16220SOL    HW160719   5.892   1.643   1.738
16220SOL    HW260720   5.993   1.598   1.618
16221SOL     OW60721   7.320   1.483   1.512
16221SOL    HW160722   7.370   1.563   1.546
16221SOL    HW260723   7.253   1.454   1.580
16222SOL     OW60724   6.561   0.491   1.104
16222SOL    HW160725   6.635   0.545   1.145
16222SOL    HW260726   6.566   0.397   1.137
16223SOL     OW60727   6.608   1.527   1.319
16223SOL    HW160728   6.582   1.610   1.369
16223SOL    HW260729   6.570   1.531   1.227
16224SOL     OW60730   5.798   1.772   1.811
16224SOL    HW160731   5.834   1.865   1.808
16224SOL    HW260732   5.796   1.740   1.906
16225SOL     OW60733   5.624   1.273   1.688
16225SOL    HW160734   5.641   1.188   1.637
16225SOL    HW260735   5.577   1.339   1.629
16226SOL     OW60736   6.556   0.185   0.861
16226SOL    HW160737   6.649   0.212   0.886
16226SOL    HW260738   6.523   0.115   0.924
16227SOL     OW60739   6.624   1.237   0.417
16227SOL    HW160740   6.715   1.244   0.457
16227SOL    HW260741   6.570   1.171   0.471
16228SOL     OW60742   7.131   0.511   0.778
16228SOL    HW160743   7.167   0.582   0.839
16228SOL    HW260744   7.172   0.423   0.803
16229SOL     OW60745   6.307   1.196   0.339
16229SOL    HW160746   6.368   1.233   0.269
16229SOL    HW260747   6.359   1.135   0.399
16230SOL     OW60748   6.435   0.148   0.097
16230SOL    HW160749   6.498   0.076   0.123
16230SOL    HW260750   6.451   0.229   0.154
16231SOL     OW60751   6.055   0.472   0.781
16231SOL    HW160752   6.122   0.398   0.780
16231SOL    HW260753   6.084   0.544   0.718
16232SOL     OW60754   6.135   1.063   1.421
16232SOL    HW160755   6.205   1.081   1.489
16232SOL    HW260756   6.119   1.146   1.366
16233SOL     OW60757   7.302   1.090   1.344
16233SOL    HW160758   7.309   1.188   1.325
16233SOL    HW260759   7.353   1.039   1.275
16234SOL     OW60760   6.268   1.689   0.277
16234SOL    HW160761   6.220   1.770   0.244
16234SOL    HW260762   6.208   1.639   0.339
16235SOL     OW60763   6.854   1.121   1.462
16235SOL    HW160764   6.794   1.087   1.534
16235SOL    HW260765   6.836   1.218   1.446
16236SOL     OW60766   6.051   1.687   1.466
16236SOL    HW160767   6.077   1.784   1.466
16236SOL    HW260768   5.966   1.676   1.415
16237SOL     OW60769   5.729   0.566   1.705
16237SOL    HW160770   5.717   0.469   1.684
16237SOL    HW260771   5.768   0.576   1.797
16238SOL     OW60772   7.222   1.526   1.049
16238SOL    HW160773   7.259   1.614   1.078
16238SOL    HW260774   7.238   1.457   1.120
16239SOL     OW60775   5.568   0.980   0.736
16239SOL    HW160776   5.634   1.025   0.676
16239SOL    HW260777   5.499   1.046   0.764
16240SOL     OW60778   6.134   0.806   1.516
16240SOL    HW160779   6.044   0.763   1.524
16240SOL    HW260780   6.123   0.899   1.482
16241SOL     OW60781   7.181   1.171   0.848
16241SOL    HW160782   7.166   1.269   0.830
16241SOL    HW260783   7.142   1.117   0.773
16242SOL     OW60784   6.290   0.520   1.023
16242SOL    HW160785   6.386   0.506   1.049
16242SOL    HW260786   6.246   0.580   1.090
16243SOL     OW60787   6.213   1.347   1.272
16243SOL    HW160788   6.115   1.341   1.257
16243SOL    HW260789   6.261   1.299   1.199
16244SOL     OW60790   5.715   0.720   1.187
16244SOL    HW160791   5.743   0.793   1.249
16244SOL    HW260792   5.701   0.756   1.095
16245SOL     OW60793   7.187   1.682   1.795
16245SOL    HW160794   7.163   1.588   1.772
16245SOL    HW260795   7.156   1.743   1.722
16246SOL     OW60796   6.893   1.235   0.497
16246SOL    HW160797   6.986   1.254   0.529
16246SOL    HW260798   6.898   1.189   0.408
16247SOL     OW60799   6.178   0.399   0.506
16247SOL    HW160800   6.081   0.382   0.495
16247SOL    HW260801   6.214   0.340   0.578
16248SOL     OW60802   7.159   0.029   0.775
16248SOL    HW160803   7.161   0.019   0.675
16248SOL    HW260804   7.176   0.124   0.799
16249SOL     OW60805   6.717   0.749   1.459
16249SOL    HW160806   6.811   0.783   1.452
16249SOL    HW260807   6.659   0.799   1.395
16250SOL     OW60808   6.213   0.737   0.859
16250SOL    HW160809   6.234   0.656   0.913
16250SOL    HW260810   6.212   0.713   0.762
16251SOL     OW60811   6.851   1.442   1.056
16251SOL    HW160812   6.797   1.359   1.065
16251SOL    HW260813   6.856   1.469   0.959
16252SOL     OW60814   6.855   0.491   0.757
16252SOL    HW160815   6.848   0.463   0.661
16252SOL    HW260816   6.950   0.511   0.779
16253SOL     OW60817   6.619   1.437   2.592
16253SOL    HW160818   6.709   1.480   2.604
16253SOL    HW260819   6.578   1.469   2.506
16254SOL     OW60820   7.139   1.284   2.408
16254SOL    HW160821   7.140   1.347   2.486
16254SOL    HW260822   7.232   1.249   2.392
16255SOL     OW60823   7.150   0.616   3.273
16255SOL    HW160824   7.063   0.585   3.310
16255SOL    HW260825   7.216   0.630   3.348
16256SOL     OW60826   5.865   0.275   1.860
16256SOL    HW160827   5.802   0.270   1.782
16256SOL    HW260828   5.940   0.337   1.839
16257SOL     OW60829   6.862   1.558   2.661
16257SOL    HW160830   6.876   1.655   2.679
16257SOL    HW260831   6.950   1.514   2.643
16258SOL     OW60832   6.747   0.097   3.264
16258SOL    HW160833   6.675   0.038   3.300
16258SOL    HW260834   6.821   0.040   3.226
16259SOL     OW60835   6.502   0.901   3.599
16259SOL    HW160836   6.466   0.911   3.507
16259SOL    HW260837   6.429   0.917   3.665
16260SOL     OW60838   6.117   1.516   2.308
16260SOL    HW160839   6.068   1.529   2.394
16260SOL    HW260840   6.185   1.443   2.318
16261SOL     OW60841   6.052   0.092   1.945
16261SOL    HW160842   6.133   0.149   1.952
16261SOL    HW260843   5.975   0.146   1.912
16262SOL     OW60844   7.104   1.070   3.381
16262SOL    HW160845   7.007   1.084   3.362
16262SOL    HW260846   7.158   1.104   3.304
16263SOL     OW60847   6.969   1.055   3.063
16263SOL    HW160848   6.911   1.069   3.143
16263SOL    HW260849   7.044   1.121   3.064
16264SOL     OW60850   6.522   1.367   3.317
16264SOL    HW160851   6.438   1.419   3.307
16264SOL    HW260852   6.518   1.284   3.262
16265SOL     OW60853   6.015   1.228   2.536
16265SOL    HW160854   5.963   1.173   2.601
16265SOL    HW260855   6.112   1.204   2.542
16266SOL     OW60856   6.221   0.626   2.441
16266SOL    HW160857   6.240   0.705   2.382
16266SOL    HW260858   6.203   0.546   2.384
16267SOL     OW60859   6.835   0.539   3.654
16267SOL    HW160860   6.935   0.543   3.661
16267SOL    HW260861   6.801   0.464   3.711
16268SOL     OW60862   5.957   1.428   1.941
16268SOL    HW160863   5.948   1.465   1.848
16268SOL    HW260864   6.024   1.483   1.992
16269SOL     OW60865   6.096   0.330   2.872
16269SOL    HW160866   6.151   0.413   2.868
16269SOL    HW260867   6.154   0.250   2.855
16270SOL     OW60868   5.897   0.795   2.308
16270SOL    HW160869   5.945   0.827   2.389
16270SOL    HW260870   5.801   0.776   2.331
16271SOL     OW60871   6.326   1.722   2.484
16271SOL    HW160872   6.387   1.655   2.441
16271SOL    HW260873   6.301   1.791   2.416
16272SOL     OW60874   7.323   1.681   2.268
16272SOL    HW160875   7.404   1.624   2.259
16272SOL    HW260876   7.289   1.705   2.177
16273SOL     OW60877   7.211   0.349   2.951
16273SOL    HW160878   7.243   0.440   2.975
16273SOL    HW260879   7.112   0.350   2.940
16274SOL     OW60880   6.588   0.354   2.197
16274SOL    HW160881   6.644   0.428   2.233
16274SOL    HW260882   6.566   0.289   2.271
16275SOL     OW60883   5.712   1.029   3.446
16275SOL    HW160884   5.804   1.058   3.471
16275SOL    HW260885   5.668   0.987   3.525
16276SOL     OW60886   6.083   0.698   1.927
16276SOL    HW160887   6.072   0.787   1.972
16276SOL    HW260888   6.156   0.704   1.859
16277SOL     OW60889   6.200   1.601   2.687
16277SOL    HW160890   6.249   1.648   2.613
16277SOL    HW260891   6.116   1.561   2.650
16278SOL     OW60892   6.508   0.606   3.419
16278SOL    HW160893   6.530   0.524   3.471
16278SOL    HW260894   6.592   0.644   3.380
16279SOL     OW60895   7.121   1.444   2.653
16279SOL    HW160896   7.147   1.473   2.746
16279SOL    HW260897   7.145   1.516   2.588
16280SOL     OW60898   5.859   1.282   2.312
16280SOL    HW160899   5.916   1.262   2.392
16280SOL    HW260900   5.905   1.249   2.230
16281SOL     OW60901   6.731   0.319   1.959
16281SOL    HW160902   6.810   0.262   1.979
16281SOL    HW260903   6.677   0.330   2.043
16282SOL     OW60904   5.893   0.554   3.103
16282SOL    HW160905   5.888   0.458   3.076
16282SOL    HW260906   5.815   0.603   3.064
16283SOL     OW60907   6.963   0.784   3.149
16283SOL    HW160908   6.979   0.879   3.121
16283SOL    HW260909   7.047   0.745   3.185
16284SOL     OW60910   5.905   0.276   2.298
16284SOL    HW160911   5.854   0.299   2.381
16284SOL    HW260912   5.860   0.319   2.220
16285SOL     OW60913   7.092   1.748   3.179
16285SOL    HW160914   7.016   1.760   3.115
16285SOL    HW260915   7.178   1.740   3.128
16286SOL     OW60916   7.288   0.594   3.031
16286SOL    HW160917   7.378   0.639   3.032
16286SOL    HW260918   7.244   0.607   3.120
16287SOL     OW60919   7.342   1.743   3.043
16287SOL    HW160920   7.380   1.785   3.125
16287SOL    HW260921   7.416   1.722   2.979
16288SOL     OW60922   6.431   0.472   2.544
16288SOL    HW160923   6.510   0.511   2.591
16288SOL    HW260924   6.371   0.546   2.514
16289SOL     OW60925   6.753   1.001   2.000
16289SOL    HW160926   6.773   0.942   2.078
16289SOL    HW260927   6.678   0.961   1.947
16290SOL     OW60928   6.534   0.390   3.609
16290SOL    HW160929   6.603   0.382   3.682
16290SOL    HW260930   6.445   0.411   3.649
16291SOL     OW60931   7.260   0.698   2.216
16291SOL    HW160932   7.218   0.607   2.213
16291SOL    HW260933   7.316   0.706   2.298
16292SOL     OW60934   6.508   1.762   2.025
16292SOL    HW160935   6.466   1.688   1.973
16292SOL    HW260936   6.574   1.724   2.090
16293SOL     OW60937   6.310   0.117   3.585
16293SOL    HW160938   6.308   0.017   3.576
16293SOL    HW260939   6.322   0.141   3.682
16294SOL     OW60940   7.226   0.680   2.775
16294SOL    HW160941   7.192   0.774   2.781
16294SOL    HW260942   7.239   0.644   2.867
16295SOL     OW60943   6.633   1.333   3.585
16295SOL    HW160944   6.678   1.244   3.576
16295SOL    HW260945   6.580   1.352   3.503
16296SOL     OW60946   6.283   1.156   3.572
16296SOL    HW160947   6.224   1.236   3.582
16296SOL    HW260948   6.286   1.106   3.658
16297SOL     OW60949   6.897   0.016   2.762
16297SOL    HW160950   6.841   0.099   2.755
16297SOL    HW260951   6.982   0.030   2.710
16298SOL     OW60952   7.293   0.277   3.650
16298SOL    HW160953   7.260   0.321   3.733
16298SOL    HW260954   7.290   0.178   3.661
16299SOL     OW60955   5.645   0.740   2.415
16299SOL    HW160956   5.649   0.671   2.487
16299SOL    HW260957   5.617   0.828   2.454
16300SOL     OW60958   5.934   0.242   2.665
16300SOL    HW160959   5.984   0.278   2.743
16300SOL    HW260960   5.945   0.143   2.660
16301SOL     OW60961   5.868   0.290   3.031
16301SOL    HW160962   5.867   0.201   3.077
16301SOL    HW260963   5.950   0.297   2.975
16302SOL     OW60964   6.647   0.803   2.807
16302SOL    HW160965   6.592   0.872   2.761
16302SOL    HW260966   6.642   0.717   2.756
16303SOL     OW60967   5.747   1.536   2.260
16303SOL    HW160968   5.785   1.444   2.271
16303SOL    HW260969   5.795   1.583   2.185
16304SOL     OW60970   6.996   1.364   3.092
16304SOL    HW160971   6.952   1.393   3.007
16304SOL    HW260972   6.930   1.367   3.166
16305SOL     OW60973   5.746   1.629   2.525
16305SOL    HW160974   5.649   1.642   2.548
16305SOL    HW260975   5.754   1.609   2.427
16306SOL     OW60976   7.262   1.407   3.132
16306SOL    HW160977   7.287   1.439   3.223
16306SOL    HW260978   7.163   1.397   3.127
16307SOL     OW60979   6.502   1.134   3.160
16307SOL    HW160980   6.556   1.053   3.135
16307SOL    HW260981   6.446   1.162   3.083
16308SOL     OW60982   5.638   0.798   2.036
16308SOL    HW160983   5.718   0.739   2.044
16308SOL    HW260984   5.564   0.763   2.094
16309SOL     OW60985   7.090   0.911   2.262
16309SOL    HW160986   7.151   0.834   2.245
16309SOL    HW260987   7.109   0.984   2.196
16310SOL     OW60988   6.467   1.770   2.883
16310SOL    HW160989   6.469   1.681   2.837
16310SOL    HW260990   6.378   1.782   2.927
16311SOL     OW60991   6.300   0.933   1.976
16311SOL    HW160992   6.340   0.845   2.000
16311SOL    HW260993   6.205   0.937   2.009
16312SOL     OW60994   6.903   0.394   2.281
16312SOL    HW160995   6.857   0.466   2.230
16312SOL    HW260996   7.002   0.412   2.282
16313SOL     OW60997   5.862   0.691   3.334
16313SOL    HW160998   5.873   0.626   3.260
16313SOL    HW260999   5.815   0.648   3.411
16314SOL     OW61000   5.673   0.268   3.282
16314SOL    HW161001   5.715   0.322   3.208
16314SOL    HW261002   5.574   0.266   3.270
16315SOL     OW61003   6.574   0.869   3.079
16315SOL    HW161004   6.597   0.844   2.985
16315SOL    HW261005   6.489   0.824   3.106
16316SOL     OW61006   7.178   0.437   2.301
16316SOL    HW161007   7.268   0.393   2.297
16316SOL    HW261008   7.161   0.468   2.395
16317SOL     OW61009   6.446   1.522   2.784
16317SOL    HW161010   6.508   1.489   2.712
16317SOL    HW261011   6.354   1.532   2.747
16318SOL     OW61012   6.339   0.436   2.123
16318SOL    HW161013   6.273   0.419   2.196
16318SOL    HW261014   6.430   0.410   2.154
16319SOL     OW61015   6.515   1.325   2.006
16319SOL    HW161016   6.565   1.299   2.088
16319SOL    HW261017   6.572   1.313   1.925
16320SOL     OW61018   7.176   1.644   2.491
16320SOL    HW161019   7.161   1.737   2.526
16320SOL    HW261020   7.228   1.649   2.406
16321SOL     OW61021   6.689   0.913   2.440
16321SOL    HW161022   6.738   0.954   2.517
16321SOL    HW261023   6.601   0.959   2.428
16322SOL     OW61024   6.377   1.641   3.490
16322SOL    HW161025   6.335   1.588   3.417
16322SOL    HW261026   6.377   1.587   3.575
16323SOL     OW61027   6.830   0.981   2.668
16323SOL    HW161028   6.803   0.899   2.719
16323SOL    HW261029   6.821   1.062   2.726
16324SOL     OW61030   5.872   1.083   2.718
16324SOL    HW161031   5.781   1.125   2.721
16324SOL    HW261032   5.905   1.067   2.811
16325SOL     OW61033   6.443   1.025   2.392
16325SOL    HW161034   6.390   0.955   2.345
16325SOL    HW261035   6.389   1.062   2.468
16326SOL     OW61036   6.798   1.385   3.281
16326SOL    HW161037   6.840   1.468   3.316
16326SOL    HW261038   6.699   1.389   3.296
16327SOL     OW61039   5.577   0.337   2.289
16327SOL    HW161040   5.632   0.353   2.207
16327SOL    HW261041   5.633   0.348   2.370
16328SOL     OW61042   7.214   1.801   2.037
16328SOL    HW161043   7.302   1.849   2.033
16328SOL    HW261044   7.202   1.747   1.954
16329SOL     OW61045   6.367   0.760   3.232
16329SOL    HW161046   6.356   0.845   3.283
16329SOL    HW261047   6.412   0.692   3.290
16330SOL     OW61048   5.615   1.834   3.243
16330SOL    HW161049   5.571   1.924   3.244
16330SOL    HW261050   5.597   1.787   3.329
16331SOL     OW61051   6.281   0.831   2.268
16331SOL    HW161052   6.201   0.873   2.225
16331SOL    HW261053   6.336   0.785   2.199
16332SOL     OW61054   5.870   0.660   2.771
16332SOL    HW161055   5.920   0.613   2.699
16332SOL    HW261056   5.924   0.660   2.855
16333SOL     OW61057   5.842   1.753   2.089
16333SOL    HW161058   5.932   1.780   2.057
16333SOL    HW261059   5.829   1.786   2.183
16334SOL     OW61060   6.880   1.769   3.006
16334SOL    HW161061   6.905   1.783   2.910
16334SOL    HW261062   6.803   1.705   3.012
16335SOL     OW61063   5.622   1.198   2.790
16335SOL    HW161064   5.535   1.195   2.742
16335SOL    HW261065   5.618   1.138   2.870
16336SOL     OW61066   6.346   9.996   2.198
16336SOL    HW161067   6.374   9.931   2.127
16336SOL    HW261068   6.246   9.998   2.204
16337SOL     OW61069   5.598   1.173   2.355
16337SOL    HW161070   5.682   1.227   2.361
16337SOL    HW261071   5.591   1.131   2.265
16338SOL     OW61072   7.110   0.334   3.435
16338SOL    HW161073   7.047   0.411   3.444
16338SOL    HW261074   7.174   0.334   3.512
16339SOL     OW61075   6.778   0.267   2.756
16339SOL    HW161076   6.806   0.317   2.674
16339SOL    HW261077   6.828   0.302   2.835
16340SOL     OW61078   6.949   0.155   2.019
16340SOL    HW161079   6.977   0.072   1.972
16340SOL    HW261080   6.927   0.134   2.114
16341SOL     OW61081   7.160   0.061   3.489
16341SOL    HW161082   7.164   0.008   3.404
16341SOL    HW261083   7.136   0.155   3.467
16342SOL     OW61084   6.281   0.248   2.543
16342SOL    HW161085   6.264   0.199   2.628
16342SOL    HW261086   6.340   0.327   2.561
16343SOL     OW61087   6.807   0.636   2.975
16343SOL    HW161088   6.765   0.701   2.912
16343SOL    HW261089   6.863   0.685   3.041
16344SOL     OW61090   7.123   9.999   2.366
16344SOL    HW161091   7.127   9.900   2.349
16344SOL    HW261092   7.036   0.035   2.331
16345SOL     OW61093   6.112   1.392   3.616
16345SOL    HW161094   6.069   1.461   3.558
16345SOL    HW261095   6.199   1.427   3.650
16346SOL     OW61096   5.964   1.122   3.507
16346SOL    HW161097   6.021   1.101   3.427
16346SOL    HW261098   5.973   1.219   3.529
16347SOL     OW61099   5.671   1.408   2.961
16347SOL    HW161100   5.657   1.342   2.887
16347SOL    HW261101   5.590   1.409   3.020
16348SOL     OW61102   6.649   0.559   2.688
16348SOL    HW161103   6.729   0.518   2.643
16348SOL    HW261104   6.626   0.506   2.769
16349SOL     OW61105   7.307   0.654   3.513
16349SOL    HW161106   7.305   0.742   3.465
16349SOL    HW261107   7.399   0.638   3.549
16350SOL     OW61108   6.933   0.387   2.955
16350SOL    HW161109   6.891   0.478   2.958
16350SOL    HW261110   6.934   0.348   3.047
16351SOL     OW61111   7.104   0.533   3.653
16351SOL    HW161112   7.181   0.577   3.607
16351SOL    HW261113   7.136   0.485   3.735
16352SOL     OW61114   6.827   0.847   2.221
16352SOL    HW161115   6.772   0.870   2.301
16352SOL    HW261116   6.923   0.872   2.238
16353SOL     OW61117   7.075   0.979   2.529
16353SOL    HW161118   7.069   0.961   2.431
16353SOL    HW261119   6.983   0.973   2.569
16354SOL     OW61120   7.306   0.880   3.369
16354SOL    HW161121   7.226   0.939   3.358
16354SOL    HW261122   7.388   0.936   3.380
16355SOL     OW61123   7.162   0.339   2.025
16355SOL    HW161124   7.175   0.371   2.119
16355SOL    HW261125   7.084   0.276   2.021
16356SOL     OW61126   6.269   1.504   3.277
16356SOL    HW161127   6.211   1.582   3.254
16356SOL    HW261128   6.236   1.423   3.229
16357SOL     OW61129   5.643   0.312   3.551
16357SOL    HW161130   5.657   0.284   3.456
16357SOL    HW261131   5.545   0.324   3.568
16358SOL     OW61132   5.577   1.692   3.475
16358SOL    HW161133   5.663   1.705   3.523
16358SOL    HW261134   5.501   1.701   3.539
16359SOL     OW61135   5.731   0.351   2.517
16359SOL    HW161136   5.705   0.440   2.556
16359SOL    HW261137   5.800   0.309   2.575
16360SOL     OW61138   6.933   1.607   3.362
16360SOL    HW161139   6.867   1.671   3.400
16360SOL    HW261140   6.990   1.653   3.295
16361SOL     OW61141   5.862   0.639   2.080
16361SOL    HW161142   5.941   0.647   2.019
16361SOL    HW261143   5.881   0.684   2.167
16362SOL     OW61144   7.295   0.314   3.225
16362SOL    HW161145   7.226   0.327   3.297
16362SOL    HW261146   7.250   0.314   3.136
16363SOL     OW61147   5.968   1.817   2.571
16363SOL    HW161148   5.887   1.760   2.560
16363SOL    HW261149   6.018   1.822   2.484
16364SOL     OW61150   5.901   1.302   3.082
16364SOL    HW161151   5.894   1.325   3.179
16364SOL    HW261152   5.825   1.345   3.032
16365SOL     OW61153   6.698   1.592   3.675
16365SOL    HW161154   6.674   1.499   3.647
16365SOL    HW261155   6.712   1.649   3.594
16366SOL     OW61156   6.297   1.310   2.344
16366SOL    HW161157   6.304   1.255   2.260
16366SOL    HW261158   6.303   1.251   2.424
16367SOL     OW61159   5.990   0.884   2.552
16367SOL    HW161160   5.942   0.953   2.606
16367SOL    HW261161   6.055   0.836   2.610
16368SOL     OW61162   5.765   0.384   2.093
16368SOL    HW161163   5.786   0.335   2.008
16368SOL    HW261164   5.793   0.479   2.085
16369SOL     OW61165   5.638   0.580   2.639
16369SOL    HW161166   5.553   0.612   2.681
16369SOL    HW261167   5.715   0.605   2.697
16370SOL     OW61168   6.027   1.201   2.094
16370SOL    HW161169   6.126   1.208   2.100
16370SOL    HW261170   5.992   1.274   2.035
16371SOL     OW61171   6.640   0.684   1.915
16371SOL    HW161172   6.600   0.757   1.858
16371SOL    HW261173   6.713   0.638   1.864
16372SOL     OW61174   6.405   0.696   2.062
16372SOL    HW161175   6.494   0.691   2.016
16372SOL    HW261176   6.369   0.604   2.075
16373SOL     OW61177   6.881   0.119   2.283
16373SOL    HW161178   6.822   0.085   2.357
16373SOL    HW261179   6.886   0.219   2.288
16374SOL     OW61180   6.908   0.536   3.388
16374SOL    HW161181   6.880   0.544   3.483
16374SOL    HW261182   6.841   0.581   3.329
16375SOL     OW61183   5.602   0.038   2.010
16375SOL    HW161184   5.539   9.971   2.049
16375SOL    HW261185   5.681   0.048   2.071
16376SOL     OW61186   5.958   1.050   2.980
16376SOL    HW161187   5.936   0.986   3.053
16376SOL    HW261188   5.941   1.144   3.012
16377SOL     OW61189   7.159   1.077   2.058
16377SOL    HW161190   7.253   1.107   2.071
16377SOL    HW261191   7.144   1.053   1.962
16378SOL     OW61192   6.152   0.689   3.060
16378SOL    HW161193   6.214   0.721   3.132
16378SOL    HW261194   6.069   0.652   3.101
16379SOL     OW61195   6.381   1.006   3.369
16379SOL    HW161196   6.433   1.058   3.301
16379SOL    HW261197   6.354   1.068   3.444
16380SOL     OW61198   6.712   1.067   3.537
16380SOL    HW161199   6.631   1.013   3.561
16380SOL    HW261200   6.794   1.017   3.562
16381SOL     OW61201   6.709   0.030   2.467
16381SOL    HW161202   6.695   9.965   2.542
16381SOL    HW261203   6.623   0.078   2.449
16382SOL     OW61204   6.740   1.767   3.467
16382SOL    HW161205   6.662   1.787   3.407
16382SOL    HW261206   6.768   1.851   3.514
16383SOL     OW61207   6.250   0.118   2.798
16383SOL    HW161208   6.229   0.039   2.856
16383SOL    HW261209   6.349   0.127   2.789
16384SOL     OW61210   5.854   1.807   3.109
16384SOL    HW161211   5.827   1.760   3.024
16384SOL    HW261212   5.773   1.816   3.168
16385SOL     OW61213   6.540   1.212   2.726
16385SOL    HW161214   6.567   1.292   2.671
16385SOL    HW261215   6.618   1.181   2.780
16386SOL     OW61216   6.187   1.003   2.810
16386SOL    HW161217   6.195   0.909   2.777
16386SOL    HW261218   6.108   1.010   2.872
16387SOL     OW61219   5.625   1.018   2.995
16387SOL    HW161220   5.693   0.994   3.065
16387SOL    HW261221   5.633   0.956   2.917
16388SOL     OW61222   5.804   0.024   2.215
16388SOL    HW161223   5.851   0.110   2.235
16388SOL    HW261224   5.721   0.018   2.270
16389SOL     OW61225   6.266   0.670   3.554
16389SOL    HW161226   6.210   0.721   3.489
16389SOL    HW261227   6.355   0.649   3.512
16390SOL     OW61228   5.624   1.073   2.100
16390SOL    HW161229   5.647   0.979   2.072
16390SOL    HW261230   5.672   1.138   2.042
16391SOL     OW61231   7.280   0.285   2.687
16391SOL    HW161232   7.260   0.304   2.783
16391SOL    HW261233   7.378   0.268   2.676
16392SOL     OW61234   6.348   1.189   2.937
16392SOL    HW161235   6.292   1.119   2.893
16392SOL    HW261236   6.413   1.227   2.870
16393SOL     OW61237   6.760   0.591   2.155
16393SOL    HW161238   6.789   0.679   2.193
16393SOL    HW261239   6.713   0.606   2.068
16394SOL     OW61240   7.091   1.469   3.537
16394SOL    HW161241   7.052   1.385   3.575
16394SOL    HW261242   7.026   1.512   3.475
16395SOL     OW61243   5.787   0.918   3.199
16395SOL    HW161244   5.823   0.835   3.242
16395SOL    HW261245   5.758   0.982   3.269
16396SOL     OW61246   6.379   1.546   1.912
16396SOL    HW161247   6.291   1.555   1.960
16396SOL    HW261248   6.428   1.467   1.948
16397SOL     OW61249   6.204   1.705   2.949
16397SOL    HW161250   6.194   1.663   2.859
16397SOL    HW261251   6.122   1.688   3.003
16398SOL     OW61252   6.300   1.147   2.596
16398SOL    HW161253   6.385   1.181   2.636
16398SOL    HW261254   6.250   1.093   2.663
16399SOL     OW61255   6.481   1.519   2.370
16399SOL    HW161256   6.545   1.531   2.295
16399SOL    HW261257   6.419   1.443   2.349
16400SOL     OW61258   5.670   0.856   2.781
16400SOL    HW161259   5.753   0.806   2.756
16400SOL    HW261260   5.629   0.896   2.699
16401SOL     OW61261   5.573   0.920   3.650
16401SOL    HW161262   5.475   0.912   3.633
16401SOL    HW261263   5.597   0.873   3.735
16402SOL     OW61264   6.512   1.807   3.313
16402SOL    HW161265   6.471   1.742   3.378
16402SOL    HW261266   6.441   1.868   3.278
16403SOL     OW61267   6.780   1.163   2.870
16403SOL    HW161268   6.787   1.262   2.879
16403SOL    HW261269   6.838   1.119   2.938
16404SOL     OW61270   6.028   0.442   3.638
16404SOL    HW161271   6.103   0.416   3.577
16404SOL    HW261272   6.046   0.532   3.677
16405SOL     OW61273   6.054   0.924   2.113
16405SOL    HW161274   6.031   1.021   2.103
16405SOL    HW261275   5.991   0.882   2.178
16406SOL     OW61276   7.141   0.938   2.851
16406SOL    HW161277   7.153   1.019   2.794
16406SOL    HW261278   7.077   0.958   2.925
16407SOL     OW61279   6.955   0.272   3.204
16407SOL    HW161280   7.003   0.309   3.284
16407SOL    HW261281   6.868   0.232   3.232
16408SOL     OW61282   5.570   0.066   2.344
16408SOL    HW161283   5.480   0.032   2.371
16408SOL    HW261284   5.563   0.163   2.319
16409SOL     OW61285   6.637   0.129   3.572
16409SOL    HW161286   6.727   0.154   3.536
16409SOL    HW261287   6.580   0.211   3.578
16410SOL     OW61288   5.988   1.594   3.469
16410SOL    HW161289   5.926   1.654   3.520
16410SOL    HW261290   6.030   1.645   3.395
16411SOL     OW61291   7.325   1.476   3.392
16411SOL    HW161292   7.373   1.560   3.413
16411SOL    HW261293   7.241   1.471   3.446
16412SOL     OW61294   6.563   0.487   2.949
16412SOL    HW161295   6.642   0.541   2.978
16412SOL    HW261296   6.564   0.398   2.994
16413SOL     OW61297   5.985   1.498   2.557
16413SOL    HW161298   5.985   1.398   2.552
16413SOL    HW261299   5.891   1.532   2.553
16414SOL     OW61300   6.649   1.625   3.036
16414SOL    HW161301   6.600   1.591   3.117
16414SOL    HW261302   6.587   1.681   2.981
16415SOL     OW61303   5.807   1.762   3.604
16415SOL    HW161304   5.787   1.857   3.580
16415SOL    HW261305   5.816   1.754   3.703
16416SOL     OW61306   5.664   1.297   3.501
16416SOL    HW161307   5.659   1.201   3.473
16416SOL    HW261308   5.590   1.349   3.457
16417SOL     OW61309   5.740   1.666   2.892
16417SOL    HW161310   5.722   1.571   2.917
16417SOL    HW261311   5.765   1.671   2.795
16418SOL     OW61312   6.521   0.149   2.765
16418SOL    HW161313   6.607   0.198   2.751
16418SOL    HW261314   6.531   0.086   2.842
16419SOL     OW61315   6.604   1.223   2.249
16419SOL    HW161316   6.695   1.234   2.290
16419SOL    HW261317   6.553   1.152   2.299
16420SOL     OW61318   7.142   0.495   2.575
16420SOL    HW161319   7.163   0.574   2.632
16420SOL    HW261320   7.192   0.415   2.608
16421SOL     OW61321   6.301   1.184   2.093
16421SOL    HW161322   6.375   1.244   2.063
16421SOL    HW261323   6.314   1.093   2.054
16422SOL     OW61324   6.306   0.194   2.001
16422SOL    HW161325   6.335   0.132   2.074
16422SOL    HW261326   6.311   0.288   2.033
16423SOL     OW61327   6.005   0.515   2.590
16423SOL    HW161328   6.009   0.415   2.591
16423SOL    HW261329   6.081   0.551   2.535
16424SOL     OW61330   6.125   1.068   3.291
16424SOL    HW161331   6.218   1.042   3.317
16424SOL    HW261332   6.128   1.149   3.232
16425SOL     OW61333   7.247   1.135   3.162
16425SOL    HW161334   7.264   1.233   3.149
16425SOL    HW261335   7.306   1.083   3.101
16426SOL     OW61336   5.738   1.256   1.935
16426SOL    HW161337   5.691   1.264   1.847
16426SOL    HW261338   5.809   1.326   1.941
16427SOL     OW61339   6.146   1.595   2.051
16427SOL    HW161340   6.123   1.691   2.033
16427SOL    HW261341   6.138   1.577   2.149
16428SOL     OW61342   6.843   1.118   3.300
16428SOL    HW161343   6.787   1.085   3.375
16428SOL    HW261344   6.828   1.216   3.288
16429SOL     OW61345   6.088   1.728   3.245
16429SOL    HW161346   6.151   1.805   3.245
16429SOL    HW261347   6.003   1.755   3.198
16430SOL     OW61348   5.748   0.565   3.551
16430SOL    HW161349   5.718   0.469   3.553
16430SOL    HW261350   5.821   0.579   3.617
16431SOL     OW61351   7.198   1.543   2.894
16431SOL    HW161352   7.227   1.636   2.917
16431SOL    HW261353   7.215   1.483   2.972
16432SOL     OW61354   5.555   0.966   2.540
16432SOL    HW161355   5.583   1.043   2.484
16432SOL    HW261356   5.456   0.961   2.544
16433SOL     OW61357   6.100   0.808   3.389
16433SOL    HW161358   6.011   0.765   3.376
16433SOL    HW261359   6.099   0.900   3.350
16434SOL     OW61360   7.156   1.175   2.702
16434SOL    HW161361   7.129   1.271   2.688
16434SOL    HW261362   7.123   1.120   2.626
16435SOL     OW61363   6.282   0.547   2.872
16435SOL    HW161364   6.377   0.524   2.894
16435SOL    HW261365   6.242   0.601   2.946
16436SOL     OW61366   6.174   1.290   3.130
16436SOL    HW161367   6.082   1.306   3.095
16436SOL    HW261368   6.235   1.265   3.054
16437SOL     OW61369   5.685   0.712   3.023
16437SOL    HW161370   5.695   0.785   3.091
16437SOL    HW261371   5.674   0.753   2.932
16438SOL     OW61372   5.877   1.376   3.344
16438SOL    HW161373   5.920   1.457   3.382
16438SOL    HW261374   5.800   1.349   3.401
16439SOL     OW61375   7.196   1.708   3.632
16439SOL    HW161376   7.159   1.616   3.616
16439SOL    HW261377   7.166   1.769   3.559
16440SOL     OW61378   6.875   1.244   2.325
16440SOL    HW161379   6.968   1.253   2.362
16440SOL    HW261380   6.880   1.235   2.225
16441SOL     OW61381   6.166   0.375   2.328
16441SOL    HW161382   6.075   0.339   2.308
16441SOL    HW261383   6.207   0.322   2.402
16442SOL     OW61384   7.132   0.063   2.632
16442SOL    HW161385   7.131   0.041   2.535
16442SOL    HW261386   7.184   0.147   2.647
16443SOL     OW61387   6.721   0.727   3.274
16443SOL    HW161388   6.815   0.757   3.255
16443SOL    HW261389   6.658   0.776   3.213
16444SOL     OW61390   6.202   0.749   2.693
16444SOL    HW161391   6.228   0.679   2.759
16444SOL    HW261392   6.214   0.714   2.600
16445SOL     OW61393   6.804   1.434   2.899
16445SOL    HW161394   6.740   1.492   2.950
16445SOL    HW261395   6.823   1.476   2.810
16446SOL     OW61396   6.868   0.437   2.558
16446SOL    HW161397   6.859   0.418   2.460
16446SOL    HW261398   6.962   0.465   2.578
16447SOL     OW61399   6.639   1.471   4.456
16447SOL    HW161400   6.732   1.508   4.451
16447SOL    HW261401   6.596   1.475   4.366
16448SOL     OW61402   7.166   1.281   4.246
16448SOL    HW161403   7.179   1.361   4.305
16448SOL    HW261404   7.255   1.242   4.223
16449SOL     OW61405   7.167   0.633   5.120
16449SOL    HW161406   7.080   0.609   5.164
16449SOL    HW261407   7.239   0.634   5.189
16450SOL     OW61408   5.844   0.272   3.735
16450SOL    HW161409   5.767   0.266   3.671
16450SOL    HW261410   5.914   0.333   3.697
16451SOL     OW61411   6.897   1.574   4.476
16451SOL    HW161412   6.901   1.672   4.495
16451SOL    HW261413   6.990   1.539   4.461
16452SOL     OW61414   6.737   0.055   5.097
16452SOL    HW161415   6.673   0.024   5.027
16452SOL    HW261416   6.814   9.991   5.101
16453SOL     OW61417   6.532   0.868   5.368
16453SOL    HW161418   6.522   0.795   5.301
16453SOL    HW261419   6.445   0.884   5.414
16454SOL     OW61420   6.100   1.475   4.099
16454SOL    HW161421   6.051   1.503   4.182
16454SOL    HW261422   6.176   1.414   4.123
16455SOL     OW61423   6.053   0.104   3.810
16455SOL    HW161424   6.134   0.162   3.807
16455SOL    HW261425   5.973   0.158   3.783
16456SOL     OW61426   7.095   1.009   5.186
16456SOL    HW161427   7.009   1.059   5.179
16456SOL    HW261428   7.160   1.045   5.119
16457SOL     OW61429   6.962   1.050   4.900
16457SOL    HW161430   6.906   1.058   4.982
16457SOL    HW261431   7.011   1.136   4.885
16458SOL     OW61432   6.505   1.386   5.152
16458SOL    HW161433   6.416   1.431   5.146
16458SOL    HW261434   6.501   1.299   5.103
16459SOL     OW61435   6.018   1.225   4.379
16459SOL    HW161436   5.964   1.181   4.450
16459SOL    HW261437   6.114   1.200   4.390
16460SOL     OW61438   6.223   0.635   4.280
16460SOL    HW161439   6.259   0.709   4.223
16460SOL    HW261440   6.200   0.556   4.222
16461SOL     OW61441   6.746   0.499   5.440
16461SOL    HW161442   6.832   0.495   5.491
16461SOL    HW261443   6.690   0.419   5.464
16462SOL     OW61444   5.959   1.405   3.859
16462SOL    HW161445   6.012   1.417   3.776
16462SOL    HW261446   6.010   1.445   3.937
16463SOL     OW61447   6.090   0.302   4.716
16463SOL    HW161448   6.131   0.392   4.707
16463SOL    HW261449   6.157   0.231   4.693
16464SOL     OW61450   5.881   0.772   4.200
16464SOL    HW161451   5.918   0.800   4.288
16464SOL    HW261452   5.784   0.749   4.210
16465SOL     OW61453   6.362   1.686   4.327
16465SOL    HW161454   6.415   1.610   4.290
16465SOL    HW261455   6.363   1.762   4.262
16466SOL     OW61456   7.322   1.624   4.101
16466SOL    HW161457   7.413   1.585   4.090
16466SOL    HW261458   7.297   1.675   4.019
16467SOL     OW61459   7.241   0.356   4.768
16467SOL    HW161460   7.267   0.448   4.799
16467SOL    HW261461   7.142   0.351   4.757
16468SOL     OW61462   6.586   0.372   4.047
16468SOL    HW161463   6.644   0.445   4.083
16468SOL    HW261464   6.564   0.308   4.121
16469SOL     OW61465   5.694   1.014   5.290
16469SOL    HW161466   5.794   1.015   5.294
16469SOL    HW261467   5.657   0.990   5.380
16470SOL     OW61468   6.061   0.700   3.733
16470SOL    HW161469   6.032   0.796   3.731
16470SOL    HW261470   6.145   0.689   3.679
16471SOL     OW61471   6.152   1.656   4.491
16471SOL    HW161472   6.229   1.678   4.432
16471SOL    HW261473   6.096   1.585   4.448
16472SOL     OW61474   6.532   0.637   5.209
16472SOL    HW161475   6.559   0.544   5.236
16472SOL    HW261476   6.607   0.679   5.156
16473SOL     OW61477   7.162   1.464   4.493
16473SOL    HW161478   7.173   1.481   4.591
16473SOL    HW261479   7.217   1.530   4.442
16474SOL     OW61480   5.842   1.252   4.165
16474SOL    HW161481   5.903   1.243   4.243
16474SOL    HW261482   5.883   1.207   4.086
16475SOL     OW61483   6.727   0.338   3.808
16475SOL    HW161484   6.805   0.278   3.821
16475SOL    HW261485   6.676   0.347   3.893
16476SOL     OW61486   5.827   0.521   4.971
16476SOL    HW161487   5.848   0.436   4.924
16476SOL    HW261488   5.776   0.582   4.910
16477SOL     OW61489   6.986   0.782   4.971
16477SOL    HW161490   7.000   0.879   4.951
16477SOL    HW261491   7.064   0.747   5.023
16478SOL     OW61492   5.907   0.279   4.152
16478SOL    HW161493   5.866   0.293   4.242
16478SOL    HW261494   5.855   0.330   4.084
16479SOL     OW61495   7.117   1.809   4.965
16479SOL    HW161496   7.036   1.783   4.912
16479SOL    HW261497   7.198   1.797   4.909
16480SOL     OW61498   7.291   0.604   4.871
16480SOL    HW161499   7.383   0.643   4.875
16480SOL    HW261500   7.246   0.614   4.959
16481SOL     OW61501   7.364   1.749   4.837
16481SOL    HW161502   7.397   1.775   4.927
16481SOL    HW261503   7.442   1.736   4.775
16482SOL     OW61504   6.420   0.486   4.409
16482SOL    HW161505   6.504   0.526   4.445
16482SOL    HW261506   6.365   0.558   4.367
16483SOL     OW61507   6.777   0.990   3.848
16483SOL    HW161508   6.803   0.942   3.932
16483SOL    HW261509   6.719   0.931   3.792
16484SOL     OW61510   6.628   0.275   5.537
16484SOL    HW161511   6.689   0.257   5.615
16484SOL    HW261512   6.534   0.254   5.563
16485SOL     OW61513   7.298   0.697   4.061
16485SOL    HW161514   7.242   0.615   4.068
16485SOL    HW261515   7.358   0.704   4.140
16486SOL     OW61516   6.531   1.762   3.837
16486SOL    HW161517   6.572   1.710   3.762
16486SOL    HW261518   6.545   1.712   3.923
16487SOL     OW61519   6.319   0.114   5.372
16487SOL    HW161520   6.369   0.033   5.343
16487SOL    HW261521   6.344   0.138   5.466
16488SOL     OW61522   7.220   0.690   4.615
16488SOL    HW161523   7.174   0.779   4.615
16488SOL    HW261524   7.235   0.660   4.709
16489SOL     OW61525   6.654   1.301   5.450
16489SOL    HW161526   6.683   1.209   5.423
16489SOL    HW261527   6.604   1.343   5.374
16490SOL     OW61528   6.260   1.174   5.391
16490SOL    HW161529   6.213   1.262   5.391
16490SOL    HW261530   6.277   1.144   5.485
16491SOL     OW61531   6.950   0.023   4.648
16491SOL    HW161532   6.882   0.095   4.633
16491SOL    HW261533   7.018   0.025   4.575
16492SOL     OW61534   7.313   0.168   5.531
16492SOL    HW161535   7.257   0.193   5.610
16492SOL    HW261536   7.263   0.100   5.475
16493SOL     OW61537   5.628   0.728   4.288
16493SOL    HW161538   5.635   0.658   4.359
16493SOL    HW261539   5.590   0.812   4.327
16494SOL     OW61540   5.903   0.188   4.534
16494SOL    HW161541   5.964   0.235   4.598
16494SOL    HW261542   5.920   0.089   4.538
16495SOL     OW61543   5.875   0.262   4.887
16495SOL    HW161544   5.889   0.181   4.944
16495SOL    HW261545   5.953   0.273   4.825
16496SOL     OW61546   6.690   0.820   4.652
16496SOL    HW161547   6.741   0.887   4.599
16496SOL    HW261548   6.662   0.745   4.592
16497SOL     OW61549   5.738   1.500   4.071
16497SOL    HW161550   5.766   1.410   4.104
16497SOL    HW261551   5.791   1.524   3.990
16498SOL     OW61552   7.042   1.310   4.896
16498SOL    HW161553   7.017   1.368   4.818
16498SOL    HW261554   6.971   1.315   4.965
16499SOL     OW61555   5.730   1.602   4.338
16499SOL    HW161556   5.634   1.612   4.363
16499SOL    HW261557   5.737   1.591   4.238
16500SOL     OW61558   7.297   1.368   4.971
16500SOL    HW161559   7.295   1.413   5.060
16500SOL    HW261560   7.204   1.339   4.946
16501SOL     OW61561   6.021   0.971   3.731
16501SOL    HW161562   5.996   1.017   3.646
16501SOL    HW261563   5.996   1.030   3.808
16502SOL     OW61564   6.500   1.156   4.993
16502SOL    HW161565   6.547   1.072   4.967
16502SOL    HW261566   6.437   1.183   4.920
16503SOL     OW61567   5.634   0.804   3.890
16503SOL    HW161568   5.719   0.751   3.900
16503SOL    HW261569   5.564   0.766   3.950
16504SOL     OW61570   7.132   0.917   4.090
16504SOL    HW161571   7.193   0.839   4.077
16504SOL    HW261572   7.152   0.987   4.021
16505SOL     OW61573   6.433   1.824   4.792
16505SOL    HW161574   6.469   1.744   4.743
16505SOL    HW261575   6.334   1.828   4.782
16506SOL     OW61576   6.291   0.938   3.776
16506SOL    HW161577   6.319   0.851   3.816
16506SOL    HW261578   6.193   0.937   3.758
16507SOL     OW61579   6.898   0.419   4.123
16507SOL    HW161580   6.853   0.490   4.068
16507SOL    HW261581   6.997   0.436   4.123
16508SOL     OW61582   5.867   0.681   5.189
16508SOL    HW161583   5.851   0.613   5.117
16508SOL    HW261584   5.822   0.650   5.273
16509SOL     OW61585   5.703   0.257   5.148
16509SOL    HW161586   5.742   0.323   5.084
16509SOL    HW261587   5.607   0.243   5.127
16510SOL     OW61588   6.582   0.909   4.893
16510SOL    HW161589   6.611   0.877   4.803
16510SOL    HW261590   6.497   0.863   4.918
16511SOL     OW61591   7.176   0.457   4.147
16511SOL    HW161592   7.266   0.412   4.145
16511SOL    HW261593   7.154   0.482   4.241
16512SOL     OW61594   6.466   1.604   4.627
16512SOL    HW161595   6.537   1.559   4.573
16512SOL    HW261596   6.383   1.614   4.572
16513SOL     OW61597   6.341   0.448   3.958
16513SOL    HW161598   6.273   0.430   4.029
16513SOL    HW261599   6.432   0.425   3.992
16514SOL     OW61600   6.512   1.304   3.846
16514SOL    HW161601   6.567   1.279   3.926
16514SOL    HW261602   6.571   1.305   3.765
16515SOL     OW61603   7.299   1.658   4.369
16515SOL    HW161604   7.254   1.744   4.395
16515SOL    HW261605   7.303   1.651   4.269
16516SOL     OW61606   6.731   0.923   4.290
16516SOL    HW161607   6.765   0.954   4.378
16516SOL    HW261608   6.638   0.958   4.276
16517SOL     OW61609   6.388   1.643   5.314
16517SOL    HW161610   6.333   1.591   5.248
16517SOL    HW261611   6.384   1.598   5.403
16518SOL     OW61612   6.855   1.005   4.524
16518SOL    HW161613   6.938   0.977   4.574
16518SOL    HW261614   6.851   1.105   4.519
16519SOL     OW61615   5.862   1.107   4.566
16519SOL    HW161616   5.770   1.144   4.562
16519SOL    HW261617   5.887   1.086   4.660
16520SOL     OW61618   6.477   1.021   4.244
16520SOL    HW161619   6.427   0.950   4.194
16520SOL    HW261620   6.418   1.059   4.315
16521SOL     OW61621   5.581   0.301   4.150
16521SOL    HW161622   5.631   0.340   4.073
16521SOL    HW261623   5.634   0.313   4.234
16522SOL     OW61624   7.232   1.797   3.888
16522SOL    HW161625   7.318   1.849   3.890
16522SOL    HW261626   7.221   1.753   3.800
16523SOL     OW61627   6.371   0.793   5.031
16523SOL    HW161628   6.344   0.871   5.088
16523SOL    HW261629   6.410   0.721   5.089
16524SOL     OW61630   5.617   1.834   5.086
16524SOL    HW161631   5.561   1.917   5.084
16524SOL    HW261632   5.607   1.789   5.175
16525SOL     OW61633   6.323   0.831   4.115
16525SOL    HW161634   6.232   0.866   4.094
16525SOL    HW261635   6.362   0.789   4.033
16526SOL     OW61636   5.883   0.568   4.637
16526SOL    HW161637   5.940   0.528   4.565
16526SOL    HW261638   5.942   0.608   4.708
16527SOL     OW61639   5.833   1.761   3.884
16527SOL    HW161640   5.927   1.789   3.866
16527SOL    HW261641   5.813   1.771   3.982
16528SOL     OW61642   6.898   1.721   4.810
16528SOL    HW161643   6.905   1.770   4.723
16528SOL    HW261644   6.892   1.623   4.792
16529SOL     OW61645   5.603   1.204   4.623
16529SOL    HW161646   5.515   1.196   4.576
16529SOL    HW261647   5.602   1.147   4.705
16530SOL     OW61648   6.368   0.010   4.047
16530SOL    HW161649   6.391   9.945   3.975
16530SOL    HW261650   6.268   0.013   4.058
16531SOL     OW61651   5.575   1.160   4.202
16531SOL    HW161652   5.664   1.204   4.214
16531SOL    HW261653   5.567   1.126   4.108
16532SOL     OW61654   7.042   0.350   5.212
16532SOL    HW161655   6.977   0.426   5.208
16532SOL    HW261656   7.111   0.368   5.282
16533SOL     OW61657   6.795   0.251   4.602
16533SOL    HW161658   6.801   0.297   4.514
16533SOL    HW261659   6.853   0.297   4.669
16534SOL     OW61660   6.954   0.179   3.865
16534SOL    HW161661   7.001   0.102   3.823
16534SOL    HW261662   6.926   0.155   3.957
16535SOL     OW61663   7.135   0.081   5.199
16535SOL    HW161664   7.208   0.116   5.139
16535SOL    HW261665   7.081   0.157   5.234
16536SOL     OW61666   6.269   0.266   4.396
16536SOL    HW161667   6.264   0.206   4.476
16536SOL    HW261668   6.329   0.343   4.417
16537SOL     OW61669   6.841   0.632   4.794
16537SOL    HW161670   6.792   0.699   4.739
16537SOL    HW261671   6.901   0.679   4.859
16538SOL     OW61672   7.118   0.024   4.169
16538SOL    HW161673   7.123   9.957   4.094
16538SOL    HW261674   7.031   0.072   4.164
16539SOL     OW61675   6.128   1.420   5.430
16539SOL    HW161676   6.082   1.494   5.382
16539SOL    HW261677   6.204   1.457   5.484
16540SOL     OW61678   5.963   1.037   5.301
16540SOL    HW161679   6.003   1.065   5.214
16540SOL    HW261680   5.960   1.115   5.364
16541SOL     OW61681   5.664   1.426   4.775
16541SOL    HW161682   5.644   1.355   4.707
16541SOL    HW261683   5.592   1.429   4.843
16542SOL     OW61684   6.650   0.578   4.523
16542SOL    HW161685   6.727   0.529   4.482
16542SOL    HW261686   6.627   0.537   4.611
16543SOL     OW61687   7.370   0.642   5.314
16543SOL    HW161688   7.369   0.741   5.303
16543SOL    HW261689   7.462   0.612   5.338
16544SOL     OW61690   6.964   0.385   4.773
16544SOL    HW161691   6.923   0.476   4.776
16544SOL    HW261692   6.939   0.335   4.856
16545SOL     OW61693   7.231   0.412   5.387
16545SOL    HW161694   7.284   0.496   5.374
16545SOL    HW261695   7.274   0.356   5.457
16546SOL     OW61696   6.865   0.852   4.069
16546SOL    HW161697   6.814   0.878   4.151
16546SOL    HW261698   6.962   0.876   4.081
16547SOL     OW61699   7.101   0.983   4.352
16547SOL    HW161700   7.113   0.969   4.253
16547SOL    HW261701   7.006   0.967   4.377
16548SOL     OW61702   7.348   0.911   5.254
16548SOL    HW161703   7.250   0.928   5.269
16548SOL    HW261704   7.377   0.960   5.172
16549SOL     OW61705   7.154   0.375   3.872
16549SOL    HW161706   7.168   0.402   3.968
16549SOL    HW261707   7.083   0.306   3.867
16550SOL     OW61708   6.253   1.525   5.110
16550SOL    HW161709   6.194   1.605   5.097
16550SOL    HW261710   6.221   1.450   5.051
16551SOL     OW61711   5.671   0.324   5.411
16551SOL    HW161712   5.683   0.294   5.316
16551SOL    HW261713   5.579   0.298   5.442
16552SOL     OW61714   5.597   1.705   5.327
16552SOL    HW161715   5.679   1.730   5.378
16552SOL    HW261716   5.518   1.711   5.388
16553SOL     OW61717   5.727   0.322   4.379
16553SOL    HW161718   5.704   0.410   4.420
16553SOL    HW261719   5.793   0.274   4.438
16554SOL     OW61720   5.867   0.657   3.938
16554SOL    HW161721   5.945   0.670   3.876
16554SOL    HW261722   5.890   0.693   4.028
16555SOL     OW61723   7.265   0.276   5.041
16555SOL    HW161724   7.193   0.323   5.092
16555SOL    HW261725   7.253   0.292   4.943
16556SOL     OW61726   5.893   1.768   4.498
16556SOL    HW161727   5.835   1.726   4.429
16556SOL    HW261728   5.986   1.733   4.490
16557SOL     OW61729   5.896   1.326   4.892
16557SOL    HW161730   5.894   1.355   4.987
16557SOL    HW261731   5.819   1.366   4.843
16558SOL     OW61732   6.834   1.501   5.520
16558SOL    HW161733   6.776   1.421   5.502
16558SOL    HW261734   6.781   1.584   5.502
16559SOL     OW61735   6.296   1.294   4.181
16559SOL    HW161736   6.302   1.235   4.101
16559SOL    HW261737   6.299   1.238   4.264
16560SOL     OW61738   5.933   0.859   4.457
16560SOL    HW161739   5.918   0.952   4.490
16560SOL    HW261740   6.018   0.823   4.495
16561SOL     OW61741   5.759   0.403   3.961
16561SOL    HW161742   5.783   0.352   3.879
16561SOL    HW261743   5.789   0.498   3.951
16562SOL     OW61744   5.645   0.554   4.503
16562SOL    HW161745   5.566   0.592   4.551
16562SOL    HW261746   5.727   0.566   4.560
16563SOL     OW61747   6.021   1.155   3.949
16563SOL    HW161748   6.120   1.161   3.954
16563SOL    HW261749   5.984   1.240   3.911
16564SOL     OW61750   6.644   0.713   3.744
16564SOL    HW161751   6.598   0.773   3.678
16564SOL    HW261752   6.714   0.660   3.698
16565SOL     OW61753   6.401   0.708   3.882
16565SOL    HW161754   6.490   0.706   3.837
16565SOL    HW261755   6.369   0.615   3.898
16566SOL     OW61756   6.874   0.146   4.127
16566SOL    HW161757   6.817   0.113   4.202
16566SOL    HW261758   6.876   0.246   4.128
16567SOL     OW61759   6.887   0.572   5.214
16567SOL    HW161760   6.832   0.550   5.295
16567SOL    HW261761   6.837   0.636   5.156
16568SOL     OW61762   5.685   9.940   3.776
16568SOL    HW161763   5.622   9.897   3.841
16568SOL    HW261764   5.740   0.009   3.823
16569SOL     OW61765   5.921   1.057   4.825
16569SOL    HW161766   5.910   0.998   4.905
16569SOL    HW261767   5.917   1.153   4.854
16570SOL     OW61768   7.200   1.081   3.884
16570SOL    HW161769   7.298   1.093   3.902
16570SOL    HW261770   7.185   1.075   3.786
16571SOL     OW61771   6.142   0.706   4.903
16571SOL    HW161772   6.223   0.746   4.947
16571SOL    HW261773   6.066   0.705   4.968
16572SOL     OW61774   6.333   1.026   5.174
16572SOL    HW161775   6.402   1.078   5.124
16572SOL    HW261776   6.312   1.072   5.261
16573SOL     OW61777   6.736   1.048   5.381
16573SOL    HW161778   6.659   0.987   5.363
16573SOL    HW261779   6.772   1.031   5.472
16574SOL     OW61780   6.714   0.060   4.321
16574SOL    HW161781   6.708   9.989   4.391
16574SOL    HW261782   6.625   0.102   4.307
16575SOL     OW61783   6.683   1.717   5.439
16575SOL    HW161784   6.660   1.650   5.369
16575SOL    HW261785   6.706   1.804   5.397
16576SOL     OW61786   6.274   0.118   4.634
16576SOL    HW161787   6.243   0.036   4.682
16576SOL    HW261788   6.374   0.123   4.638
16577SOL     OW61789   5.849   1.816   4.941
16577SOL    HW161790   5.819   1.770   4.857
16577SOL    HW261791   5.772   1.821   5.005
16578SOL     OW61792   6.530   1.253   4.580
16578SOL    HW161793   6.561   1.333   4.529
16578SOL    HW261794   6.600   1.227   4.647
16579SOL     OW61795   6.181   1.005   4.648
16579SOL    HW161796   6.190   0.911   4.615
16579SOL    HW261797   6.103   1.010   4.712
16580SOL     OW61798   5.591   1.032   4.835
16580SOL    HW161799   5.681   0.989   4.831
16580SOL    HW261800   5.524   0.973   4.791
16581SOL     OW61801   5.818   0.029   4.048
16581SOL    HW161802   5.856   0.116   4.079
16581SOL    HW261803   5.729   0.014   4.091
16582SOL     OW61804   6.284   0.602   5.355
16582SOL    HW161805   6.222   0.665   5.308
16582SOL    HW261806   6.375   0.610   5.316
16583SOL     OW61807   5.605   1.081   3.936
16583SOL    HW161808   5.633   0.987   3.918
16583SOL    HW261809   5.654   1.144   3.876
16584SOL     OW61810   7.283   0.284   4.496
16584SOL    HW161811   7.281   0.302   4.595
16584SOL    HW261812   7.378   0.281   4.465
16585SOL     OW61813   6.339   1.197   4.771
16585SOL    HW161814   6.285   1.122   4.733
16585SOL    HW261815   6.403   1.231   4.703
16586SOL     OW61816   6.760   0.614   3.989
16586SOL    HW161817   6.799   0.698   4.027
16586SOL    HW261818   6.713   0.635   3.903
16587SOL     OW61819   5.794   0.898   5.035
16587SOL    HW161820   5.828   0.824   5.093
16587SOL    HW261821   5.746   0.965   5.091
16588SOL     OW61822   6.347   1.489   3.718
16588SOL    HW161823   6.299   1.546   3.784
16588SOL    HW261824   6.410   1.428   3.766
16589SOL     OW61825   6.167   1.809   4.719
16589SOL    HW161826   6.160   1.745   4.642
16589SOL    HW261827   6.093   1.789   4.784
16590SOL     OW61828   6.310   1.147   4.435
16590SOL    HW161829   6.388   1.192   4.478
16590SOL    HW261830   6.262   1.091   4.503
16591SOL     OW61831   6.504   1.478   4.219
16591SOL    HW161832   6.562   1.494   4.140
16591SOL    HW261833   6.435   1.409   4.196
16592SOL     OW61834   5.684   0.850   4.600
16592SOL    HW161835   5.769   0.832   4.550
16592SOL    HW261836   5.618   0.893   4.539
16593SOL     OW61837   5.574   0.939   5.522
16593SOL    HW161838   5.477   0.932   5.498
16593SOL    HW261839   5.600   0.862   5.580
16594SOL     OW61840   6.526   1.763   5.081
16594SOL    HW161841   6.477   1.732   5.162
16594SOL    HW261842   6.460   1.778   5.007
16595SOL     OW61843   6.731   1.219   4.774
16595SOL    HW161844   6.719   1.268   4.860
16595SOL    HW261845   6.769   1.129   4.792
16596SOL     OW61846   6.079   0.362   5.509
16596SOL    HW161847   6.118   0.353   5.417
16596SOL    HW261848   6.085   0.457   5.538
16597SOL     OW61849   6.072   0.909   4.064
16597SOL    HW161850   6.039   0.997   4.028
16597SOL    HW261851   5.999   0.863   4.113
16598SOL     OW61852   7.087   0.953   4.667
16598SOL    HW161853   7.136   1.032   4.630
16598SOL    HW261854   7.050   0.975   4.757
16599SOL     OW61855   6.901   0.254   4.999
16599SOL    HW161856   6.954   0.285   5.078
16599SOL    HW261857   6.832   0.188   5.029
16600SOL     OW61858   5.569   0.027   4.168
16600SOL    HW161859   5.548   9.997   4.261
16600SOL    HW261860   5.555   0.126   4.160
16601SOL     OW61861   6.679   0.061   5.371
16601SOL    HW161862   6.709   0.078   5.277
16601SOL    HW261863   6.667   0.148   5.418
16602SOL     OW61864   5.984   1.620   5.306
16602SOL    HW161865   5.928   1.679   5.364
16602SOL    HW261866   6.024   1.674   5.231
16603SOL     OW61867   7.260   1.479   5.221
16603SOL    HW161868   7.314   1.560   5.242
16603SOL    HW261869   7.166   1.493   5.253
16604SOL     OW61870   6.588   0.505   4.781
16604SOL    HW161871   6.676   0.545   4.808
16604SOL    HW261872   6.568   0.426   4.839
16605SOL     OW61873   5.983   1.494   4.355
16605SOL    HW161874   5.990   1.395   4.368
16605SOL    HW261875   5.887   1.521   4.355
16606SOL     OW61876   5.826   1.788   5.465
16606SOL    HW161877   5.847   1.885   5.457
16606SOL    HW261878   5.825   1.761   5.561
16607SOL     OW61879   5.694   1.294   5.304
16607SOL    HW161880   5.674   1.198   5.290
16607SOL    HW261881   5.616   1.350   5.277
16608SOL     OW61882   5.742   1.690   4.722
16608SOL    HW161883   5.726   1.592   4.726
16608SOL    HW261884   5.792   1.712   4.638
16609SOL     OW61885   6.546   0.129   4.655
16609SOL    HW161886   6.630   0.177   4.628
16609SOL    HW261887   6.562   0.080   4.741
16610SOL     OW61888   6.624   1.211   4.087
16610SOL    HW161889   6.714   1.224   4.129
16610SOL    HW261890   6.573   1.142   4.139
16611SOL     OW61891   7.134   0.502   4.419
16611SOL    HW161892   7.157   0.577   4.481
16611SOL    HW261893   7.185   0.420   4.445
16612SOL     OW61894   6.297   1.161   3.938
16612SOL    HW161895   6.371   1.220   3.906
16612SOL    HW261896   6.304   1.072   3.894
16613SOL     OW61897   6.315   0.202   3.843
16613SOL    HW161898   6.349   0.143   3.916
16613SOL    HW261899   6.320   0.297   3.872
16614SOL     OW61900   6.048   0.470   4.444
16614SOL    HW161901   6.095   0.382   4.439
16614SOL    HW261902   6.096   0.536   4.385
16615SOL     OW61903   6.093   1.105   5.078
16615SOL    HW161904   6.181   1.068   5.106
16615SOL    HW261905   6.106   1.195   5.036
16616SOL     OW61906   7.303   1.089   5.016
16616SOL    HW161907   7.315   1.188   5.015
16616SOL    HW261908   7.352   1.049   4.939
16617SOL     OW61909   5.737   1.256   3.771
16617SOL    HW161910   5.709   1.277   3.677
16617SOL    HW261911   5.808   1.321   3.799
16618SOL     OW61912   6.191   1.627   3.887
16618SOL    HW161913   6.148   1.716   3.876
16618SOL    HW261914   6.164   1.588   3.975
16619SOL     OW61915   6.832   1.130   5.131
16619SOL    HW161916   6.802   1.094   5.219
16619SOL    HW261917   6.775   1.209   5.107
16620SOL     OW61918   6.081   1.750   5.082
16620SOL    HW161919   6.127   1.839   5.094
16620SOL    HW261920   5.997   1.763   5.031
16621SOL     OW61921   5.740   0.588   5.417
16621SOL    HW161922   5.725   0.490   5.421
16621SOL    HW261923   5.748   0.624   5.510
16622SOL     OW61924   7.218   1.530   4.751
16622SOL    HW161925   7.257   1.620   4.767
16622SOL    HW261926   7.247   1.467   4.824
16623SOL     OW61927   5.519   0.956   4.390
16623SOL    HW161928   5.546   1.032   4.330
16623SOL    HW261929   5.419   0.952   4.395
16624SOL     OW61930   6.120   0.773   5.222
16624SOL    HW161931   6.026   0.740   5.217
16624SOL    HW261932   6.119   0.872   5.240
16625SOL     OW61933   7.178   1.185   4.534
16625SOL    HW161934   7.163   1.282   4.520
16625SOL    HW261935   7.155   1.135   4.451
16626SOL     OW61936   6.242   0.543   4.713
16626SOL    HW161937   6.340   0.526   4.724
16626SOL    HW261938   6.210   0.601   4.788
16627SOL     OW61939   6.168   1.333   4.938
16627SOL    HW161940   6.075   1.341   4.901
16627SOL    HW261941   6.228   1.293   4.868
16628SOL     OW61942   5.687   0.727   4.848
16628SOL    HW161943   5.723   0.794   4.912
16628SOL    HW261944   5.688   0.765   4.756
16629SOL     OW61945   5.887   1.410   5.148
16629SOL    HW161946   5.927   1.486   5.201
16629SOL    HW261947   5.816   1.365   5.203
16630SOL     OW61948   7.159   1.728   5.440
16630SOL    HW161949   7.103   1.648   5.420
16630SOL    HW261950   7.139   1.800   5.374
16631SOL     OW61951   6.899   1.236   4.173
16631SOL    HW161952   6.993   1.247   4.206
16631SOL    HW261953   6.901   1.225   4.073
16632SOL     OW61954   6.169   0.381   4.164
16632SOL    HW161955   6.077   0.346   4.147
16632SOL    HW261956   6.210   0.331   4.240
16633SOL     OW61957   7.142   0.053   4.448
16633SOL    HW161958   7.133   0.035   4.350
16633SOL    HW261959   7.189   0.140   4.462
16634SOL     OW61960   6.734   0.762   5.070
16634SOL    HW161961   6.828   0.773   5.039
16634SOL    HW261962   6.674   0.820   5.015
16635SOL     OW61963   6.180   0.751   4.534
16635SOL    HW161964   6.199   0.675   4.597
16635SOL    HW261965   6.199   0.722   4.440
16636SOL     OW61966   6.880   1.453   4.721
16636SOL    HW161967   6.816   1.377   4.724
16636SOL    HW261968   6.881   1.492   4.628
16637SOL     OW61969   6.860   0.439   4.401
16637SOL    HW161970   6.853   0.428   4.302
16637SOL    HW261971   6.954   0.466   4.424
16638SOL     OW61972   6.649   1.479   6.261
16638SOL    HW161973   6.739   1.513   6.289
16638SOL    HW261974   6.643   1.478   6.161
16639SOL     OW61975   7.081   1.262   6.113
16639SOL    HW161976   7.076   1.326   6.190
16639SOL    HW261977   7.165   1.279   6.061
16640SOL     OW61978   7.156   0.611   6.999
16640SOL    HW161979   7.065   0.584   7.032
16640SOL    HW261980   7.216   0.627   7.077
16641SOL     OW61981   5.857   0.242   5.589
16641SOL    HW161982   5.783   0.256   5.523
16641SOL    HW261983   5.939   0.288   5.556
16642SOL     OW61984   6.888   1.567   6.361
16642SOL    HW161985   6.901   1.665   6.373
16642SOL    HW261986   6.977   1.523   6.345
16643SOL     OW61987   6.713   0.134   6.946
16643SOL    HW161988   6.626   0.088   6.931
16643SOL    HW261989   6.788   0.069   6.932
16644SOL     OW61990   6.643   0.911   7.368
16644SOL    HW161991   6.688   0.970   7.302
16644SOL    HW261992   6.547   0.935   7.376
16645SOL     OW61993   6.085   0.101   5.660
16645SOL    HW161994   6.152   0.165   5.622
16645SOL    HW261995   5.992   0.134   5.641
16646SOL     OW61996   7.142   1.085   7.082
16646SOL    HW161997   7.046   1.091   7.054
16646SOL    HW261998   7.199   1.128   7.012
16647SOL     OW61999   7.064   1.026   6.773
16647SOL    HW162000   6.985   1.061   6.824
16647SOL    HW262001   7.145   1.079   6.797
16648SOL     OW62002   6.448   1.293   6.842
16648SOL    HW162003   6.355   1.271   6.814
16648SOL    HW262004   6.461   1.392   6.841
16649SOL     OW62005   6.013   1.233   6.304
16649SOL    HW162006   5.979   1.161   6.366
16649SOL    HW262007   6.105   1.209   6.274
16650SOL     OW62008   6.884   0.491   7.350
16650SOL    HW162009   6.984   0.497   7.355
16650SOL    HW262010   6.852   0.419   7.412
16651SOL     OW62011   5.857   0.791   6.030
16651SOL    HW162012   5.889   0.809   6.123
16651SOL    HW262013   5.762   0.761   6.032
16652SOL     OW62014   6.397   1.664   6.026
16652SOL    HW162015   6.466   1.593   6.012
16652SOL    HW262016   6.378   1.673   6.124
16653SOL     OW62017   7.319   1.596   5.907
16653SOL    HW162018   7.416   1.577   5.894
16653SOL    HW262019   7.283   1.641   5.825
16654SOL     OW62020   7.258   0.332   6.665
16654SOL    HW162021   7.291   0.410   6.717
16654SOL    HW262022   7.160   0.340   6.651
16655SOL     OW62023   5.681   1.066   7.177
16655SOL    HW162024   5.779   1.076   7.155
16655SOL    HW262025   5.671   1.019   7.264
16656SOL     OW62026   6.101   0.627   5.565
16656SOL    HW162027   6.063   0.718   5.549
16656SOL    HW262028   6.180   0.612   5.506
16657SOL     OW62029   7.133   1.434   6.341
16657SOL    HW162030   7.150   1.474   6.431
16657SOL    HW262031   7.179   1.489   6.271
16658SOL     OW62032   6.796   0.216   5.741
16658SOL    HW162033   6.848   0.134   5.717
16658SOL    HW262034   6.823   0.246   5.833
16659SOL     OW62035   7.008   0.756   6.811
16659SOL    HW162036   7.035   0.851   6.796
16659SOL    HW262037   7.072   0.713   6.873
16660SOL     OW62038   5.893   0.261   5.992
16660SOL    HW162039   5.844   0.287   6.075
16660SOL    HW262040   5.858   0.314   5.915
16661SOL     OW62041   7.083   1.908   6.771
16661SOL    HW162042   7.005   1.853   6.742
16661SOL    HW262043   7.166   1.873   6.728
16662SOL     OW62044   7.361   0.522   6.833
16662SOL    HW162045   7.420   0.597   6.805
16662SOL    HW262046   7.288   0.557   6.891
16663SOL     OW62047   7.316   1.808   6.619
16663SOL    HW162048   7.312   1.898   6.575
16663SOL    HW262049   7.410   1.774   6.617
16664SOL     OW62050   6.750   0.971   5.652
16664SOL    HW162051   6.697   1.016   5.724
16664SOL    HW262052   6.719   0.877   5.642
16665SOL     OW62053   6.546   0.306   7.415
16665SOL    HW162054   6.637   0.316   7.454
16665SOL    HW262055   6.483   0.370   7.459
16666SOL     OW62056   6.648   1.826   5.683
16666SOL    HW162057   6.653   1.779   5.595
16666SOL    HW262058   6.678   1.764   5.756
16667SOL     OW62059   6.328   9.997   7.228
16667SOL    HW162060   6.405   9.941   7.197
16667SOL    HW262061   6.344   0.025   7.323
16668SOL     OW62062   7.118   0.688   6.424
16668SOL    HW162063   7.099   0.784   6.443
16668SOL    HW262064   7.214   0.669   6.442
16669SOL     OW62065   6.960   0.079   6.528
16669SOL    HW162066   6.960   0.173   6.562
16669SOL    HW262067   7.016   0.074   6.444
16670SOL     OW62068   7.323   0.205   7.372
16670SOL    HW162069   7.318   0.151   7.456
16670SOL    HW262070   7.278   0.154   7.298
16671SOL     OW62071   5.601   0.718   6.110
16671SOL    HW162072   5.617   0.645   6.177
16671SOL    HW262073   5.567   0.799   6.156
16672SOL     OW62074   5.905   0.202   6.360
16672SOL    HW162075   5.821   0.185   6.412
16672SOL    HW262076   5.982   0.160   6.407
16673SOL     OW62077   5.900   0.225   6.688
16673SOL    HW162078   5.882   0.158   6.760
16673SOL    HW262079   5.979   0.196   6.634
16674SOL     OW62080   6.547   0.956   6.514
16674SOL    HW162081   6.641   0.991   6.520
16674SOL    HW262082   6.531   0.920   6.422
16675SOL     OW62083   7.003   1.367   6.827
16675SOL    HW162084   6.947   1.413   6.758
16675SOL    HW262085   6.948   1.299   6.875
16676SOL     OW62086   7.260   1.443   6.806
16676SOL    HW162087   7.279   1.518   6.869
16676SOL    HW262088   7.164   1.415   6.816
16677SOL     OW62089   6.028   0.880   5.515
16677SOL    HW162090   5.997   0.920   5.429
16677SOL    HW262091   6.019   0.947   5.589
16678SOL     OW62092   6.637   1.094   6.820
16678SOL    HW162093   6.600   1.002   6.815
16678SOL    HW262094   6.563   1.159   6.837
16679SOL     OW62095   5.630   0.728   5.687
16679SOL    HW162096   5.720   0.705   5.724
16679SOL    HW262097   5.560   0.714   5.757
16680SOL     OW62098   6.433   1.786   6.516
16680SOL    HW162099   6.429   1.730   6.433
16680SOL    HW262100   6.358   1.760   6.577
16681SOL     OW62101   6.308   0.863   5.518
16681SOL    HW162102   6.329   0.800   5.592
16681SOL    HW262103   6.209   0.878   5.513
16682SOL     OW62104   5.661   0.271   6.962
16682SOL    HW162105   5.694   0.347   6.906
16682SOL    HW262106   5.566   0.250   6.939
16683SOL     OW62107   6.571   0.816   6.752
16683SOL    HW162108   6.550   0.863   6.666
16683SOL    HW262109   6.589   0.719   6.732
16684SOL     OW62110   7.163   0.378   5.976
16684SOL    HW162111   7.257   0.380   5.942
16684SOL    HW262112   7.159   0.423   6.065
16685SOL     OW62113   6.412   1.595   6.319
16685SOL    HW162114   6.503   1.562   6.295
16685SOL    HW262115   6.371   1.533   6.386
16686SOL     OW62116   6.358   0.399   5.812
16686SOL    HW162117   6.274   0.388   5.865
16686SOL    HW262118   6.436   0.403   5.874
16687SOL     OW62119   6.501   1.313   5.677
16687SOL    HW162120   6.546   1.282   5.760
16687SOL    HW262121   6.564   1.307   5.600
16688SOL     OW62122   7.238   1.609   6.171
16688SOL    HW162123   7.217   1.701   6.203
16688SOL    HW262124   7.268   1.613   6.075
16689SOL     OW62125   6.623   0.918   6.239
16689SOL    HW162126   6.647   0.832   6.193
16689SOL    HW262127   6.565   0.973   6.179
16690SOL     OW62128   6.804   1.027   6.441
16690SOL    HW162129   6.896   0.989   6.451
16690SOL    HW262130   6.763   0.994   6.356
16691SOL     OW62131   5.876   1.053   6.473
16691SOL    HW162132   5.791   1.103   6.455
16691SOL    HW262133   5.893   1.050   6.571
16692SOL     OW62134   6.449   1.048   6.065
16692SOL    HW162135   6.401   1.002   5.991
16692SOL    HW262136   6.383   1.093   6.125
16693SOL     OW62137   5.574   0.327   5.970
16693SOL    HW162138   5.635   0.356   5.897
16693SOL    HW262139   5.624   0.329   6.057
16694SOL     OW62140   7.226   1.782   5.706
16694SOL    HW162141   7.313   1.831   5.700
16694SOL    HW262142   7.201   1.748   5.616
16695SOL     OW62143   6.328   0.925   5.848
16695SOL    HW162144   6.230   0.919   5.868
16695SOL    HW262145   6.359   0.839   5.808
16696SOL     OW62146   5.886   0.563   6.426
16696SOL    HW162147   5.942   0.520   6.355
16696SOL    HW262148   5.910   0.525   6.515
16697SOL     OW62149   5.819   1.763   5.738
16697SOL    HW162150   5.889   1.696   5.762
16697SOL    HW262151   5.808   1.828   5.813
16698SOL     OW62152   6.871   1.756   6.671
16698SOL    HW162153   6.890   1.787   6.577
16698SOL    HW262154   6.860   1.656   6.671
16699SOL     OW62155   5.602   1.178   6.479
16699SOL    HW162156   5.508   1.181   6.445
16699SOL    HW262157   5.608   1.115   6.556
16700SOL     OW62158   6.343   0.006   5.980
16700SOL    HW162159   6.397   9.991   5.897
16700SOL    HW262160   6.246   0.006   5.958
16701SOL     OW62161   5.595   1.182   6.182
16701SOL    HW162162   5.619   1.208   6.275
16701SOL    HW262163   5.674   1.196   6.122
16702SOL     OW62164   7.083   0.325   7.148
16702SOL    HW162165   7.004   0.376   7.114
16702SOL    HW262166   7.125   0.375   7.224
16703SOL     OW62167   6.967   9.999   5.750
16703SOL    HW162168   7.054   9.952   5.765
16703SOL    HW262169   6.893   9.947   5.793
16704SOL     OW62170   7.191   0.073   7.170
16704SOL    HW162171   7.218   0.065   7.074
16704SOL    HW262172   7.132   0.153   7.181
16705SOL     OW62173   6.920   0.603   6.598
16705SOL    HW162174   6.979   0.628   6.522
16705SOL    HW262175   6.944   0.658   6.678
16706SOL     OW62176   7.121   0.051   6.040
16706SOL    HW162177   7.144   9.989   5.965
16706SOL    HW262178   7.042   0.106   6.014
16707SOL     OW62179   5.939   1.119   7.105
16707SOL    HW162180   6.007   1.075   7.046
16707SOL    HW262181   5.941   1.218   7.090
16708SOL     OW62182   5.673   1.390   6.652
16708SOL    HW162183   5.653   1.324   6.580
16708SOL    HW262184   5.594   1.398   6.713
16709SOL     OW62185   7.344   0.657   7.207
16709SOL    HW162186   7.349   0.743   7.155
16709SOL    HW262187   7.436   0.632   7.238
16710SOL     OW62188   6.988   0.340   6.640
16710SOL    HW162189   6.956   0.429   6.607
16710SOL    HW262190   6.952   0.325   6.733
16711SOL     OW62191   7.162   0.496   7.348
16711SOL    HW162192   7.233   0.553   7.307
16711SOL    HW262193   7.190   0.467   7.440
16712SOL     OW62194   7.348   0.887   7.056
16712SOL    HW162195   7.267   0.946   7.049
16712SOL    HW262196   7.429   0.942   7.074
16713SOL     OW62197   7.142   0.222   5.733
16713SOL    HW162198   7.139   0.283   5.813
16713SOL    HW262199   7.069   0.154   5.741
16714SOL     OW62200   5.666   0.300   7.238
16714SOL    HW162201   5.660   0.289   7.139
16714SOL    HW262202   5.578   0.278   7.280
16715SOL     OW62203   5.723   0.335   6.198
16715SOL    HW162204   5.682   0.411   6.247
16715SOL    HW262205   5.784   0.285   6.259
16716SOL     OW62206   5.884   0.647   5.769
16716SOL    HW162207   5.968   0.643   5.715
16716SOL    HW262208   5.903   0.694   5.856
16717SOL     OW62209   7.212   0.205   6.919
16717SOL    HW162210   7.155   0.264   6.977
16717SOL    HW262211   7.215   0.243   6.827
16718SOL     OW62212   5.935   1.327   6.772
16718SOL    HW162213   5.939   1.356   6.867
16718SOL    HW262214   5.863   1.377   6.724
16719SOL     OW62215   5.860   0.821   6.315
16719SOL    HW162216   5.890   0.901   6.368
16719SOL    HW262217   5.893   0.738   6.359
16720SOL     OW62218   5.769   0.399   5.793
16720SOL    HW162219   5.796   0.341   5.716
16720SOL    HW262220   5.809   0.490   5.782
16721SOL     OW62221   5.628   0.556   6.333
16721SOL    HW162222   5.560   0.603   6.389
16721SOL    HW262223   5.719   0.567   6.374
16722SOL     OW62224   6.024   1.095   5.677
16722SOL    HW162225   6.120   1.122   5.678
16722SOL    HW262226   5.973   1.157   5.617
16723SOL     OW62227   6.637   0.721   5.572
16723SOL    HW162228   6.600   0.782   5.502
16723SOL    HW262229   6.677   0.640   5.528
16724SOL     OW62230   6.401   0.689   5.716
16724SOL    HW162231   6.492   0.689   5.674
16724SOL    HW262232   6.372   0.595   5.734
16725SOL     OW62233   6.925   0.247   5.989
16725SOL    HW162234   6.878   0.263   6.076
16725SOL    HW262235   7.007   0.304   5.984
16726SOL     OW62236   6.894   0.530   7.077
16726SOL    HW162237   6.876   0.527   7.175
16726SOL    HW262238   6.841   0.603   7.035
16727SOL     OW62239   5.518   0.030   5.641
16727SOL    HW162240   5.459   9.971   5.696
16727SOL    HW262241   5.613   0.019   5.670
16728SOL     OW62242   5.886   1.062   6.753
16728SOL    HW162243   5.952   1.019   6.814
16728SOL    HW262244   5.894   1.161   6.759
16729SOL     OW62245   6.824   1.074   7.219
16729SOL    HW162246   6.863   1.130   7.292
16729SOL    HW262247   6.871   0.986   7.216
16730SOL     OW62248   6.106   0.115   6.531
16730SOL    HW162249   6.117   0.038   6.594
16730SOL    HW262250   6.194   0.136   6.489
16731SOL     OW62251   6.529   1.347   6.464
16731SOL    HW162252   6.571   1.391   6.385
16731SOL    HW262253   6.600   1.311   6.525
16732SOL     OW62254   5.626   1.000   6.688
16732SOL    HW162255   5.719   1.012   6.723
16732SOL    HW262256   5.626   0.927   6.620
16733SOL     OW62257   5.803   0.011   5.924
16733SOL    HW162258   5.841   0.101   5.949
16733SOL    HW262259   5.707   0.007   5.954
16734SOL     OW62260   7.295   0.293   6.390
16734SOL    HW162261   7.279   0.307   6.487
16734SOL    HW262262   7.384   0.251   6.376
16735SOL     OW62263   6.349   1.155   6.521
16735SOL    HW162264   6.405   1.073   6.533
16735SOL    HW262265   6.408   1.235   6.508
16736SOL     OW62266   6.348   1.518   5.564
16736SOL    HW162267   6.330   1.588   5.633
16736SOL    HW262268   6.401   1.444   5.605
16737SOL     OW62269   6.239   1.658   6.668
16737SOL    HW162270   6.146   1.632   6.693
16737SOL    HW262271   6.304   1.614   6.731
16738SOL     OW62272   6.294   1.192   6.251
16738SOL    HW162273   6.322   1.287   6.234
16738SOL    HW262274   6.307   1.170   6.347
16739SOL     OW62275   6.599   1.475   5.992
16739SOL    HW162276   6.652   1.528   5.927
16739SOL    HW262277   6.592   1.380   5.961
16740SOL     OW62278   5.628   0.834   6.470
16740SOL    HW162279   5.714   0.823   6.420
16740SOL    HW262280   5.556   0.862   6.406
16741SOL     OW62281   5.600   0.925   7.402
16741SOL    HW162282   5.507   0.910   7.369
16741SOL    HW262283   5.621   0.859   7.474
16742SOL     OW62284   6.487   1.807   6.968
16742SOL    HW162285   6.550   1.800   7.045
16742SOL    HW262286   6.415   1.873   6.989
16743SOL     OW62287   6.734   1.233   6.606
16743SOL    HW162288   6.699   1.185   6.687
16743SOL    HW262289   6.770   1.166   6.541
16744SOL     OW62290   6.072   0.336   7.377
16744SOL    HW162291   6.118   0.295   7.298
16744SOL    HW262292   6.107   0.429   7.391
16745SOL     OW62293   6.060   0.913   5.884
16745SOL    HW162294   6.027   0.983   5.821
16745SOL    HW262295   5.984   0.880   5.939
16746SOL     OW62296   7.068   0.954   6.501
16746SOL    HW162297   7.116   1.029   6.454
16746SOL    HW262298   7.064   0.975   6.599
16747SOL     OW62299   6.906   0.319   6.897
16747SOL    HW162300   6.896   0.405   6.947
16747SOL    HW262301   6.831   0.258   6.921
16748SOL     OW62302   5.536   0.054   5.982
16748SOL    HW162303   5.441   0.036   6.007
16748SOL    HW262304   5.551   0.152   5.971
16749SOL     OW62305   6.660   0.122   7.243
16749SOL    HW162306   6.698   0.157   7.158
16749SOL    HW262307   6.615   0.196   7.293
16750SOL     OW62308   6.653   0.562   6.681
16750SOL    HW162309   6.744   0.575   6.644
16750SOL    HW262310   6.633   0.465   6.690
16751SOL     OW62311   6.466   1.577   6.811
16751SOL    HW162312   6.471   1.655   6.873
16751SOL    HW262313   6.524   1.594   6.731
16752SOL     OW62314   5.678   1.341   7.113
16752SOL    HW162315   5.661   1.245   7.135
16752SOL    HW262316   5.591   1.388   7.101
16753SOL     OW62317   5.847   1.601   6.641
16753SOL    HW162318   5.773   1.534   6.644
16753SOL    HW262319   5.873   1.619   6.546
16754SOL     OW62320   6.365   0.171   6.436
16754SOL    HW162321   6.398   0.265   6.443
16754SOL    HW262322   6.415   0.112   6.500
16755SOL     OW62323   6.611   1.211   5.909
16755SOL    HW162324   6.707   1.195   5.932
16755SOL    HW262325   6.553   1.153   5.966
16756SOL     OW62326   7.165   0.481   6.229
16756SOL    HW162327   7.136   0.559   6.284
16756SOL    HW262328   7.211   0.414   6.287
16757SOL     OW62329   6.292   1.137   5.666
16757SOL    HW162330   6.363   1.208   5.674
16757SOL    HW262331   6.316   1.060   5.725
16758SOL     OW62332   6.382   0.191   5.629
16758SOL    HW162333   6.397   0.106   5.680
16758SOL    HW262334   6.364   0.265   5.693
16759SOL     OW62335   6.038   0.425   6.251
16759SOL    HW162336   6.006   0.334   6.278
16759SOL    HW262337   6.089   0.418   6.166
16760SOL     OW62338   6.122   1.035   6.919
16760SOL    HW162339   6.199   0.973   6.938
16760SOL    HW262340   6.153   1.110   6.861
16761SOL     OW62341   7.286   1.171   6.867
16761SOL    HW162342   7.288   1.268   6.841
16761SOL    HW262343   7.357   1.121   6.818
16762SOL     OW62344   5.919   1.249   5.471
16762SOL    HW162345   5.835   1.281   5.427
16762SOL    HW262346   5.991   1.317   5.459
16763SOL     OW62347   6.315   1.703   5.760
16763SOL    HW162348   6.334   1.796   5.729
16763SOL    HW262349   6.336   1.695   5.857
16764SOL     OW62350   6.872   1.133   6.953
16764SOL    HW162351   6.848   1.123   7.050
16764SOL    HW262352   6.790   1.120   6.897
16765SOL     OW62353   5.631   0.537   7.381
16765SOL    HW162354   5.656   0.454   7.331
16765SOL    HW262355   5.688   0.545   7.463
16766SOL     OW62356   7.188   1.567   6.567
16766SOL    HW162357   7.223   1.660   6.573
16766SOL    HW262358   7.203   1.520   6.654
16767SOL     OW62359   5.498   0.931   6.243
16767SOL    HW162360   5.542   1.017   6.218
16767SOL    HW262361   5.399   0.940   6.235
16768SOL     OW62362   7.189   1.163   6.364
16768SOL    HW162363   7.167   1.260   6.376
16768SOL    HW262364   7.171   1.136   6.270
16769SOL     OW62365   6.197   1.229   6.744
16769SOL    HW162366   6.109   1.275   6.733
16769SOL    HW262367   6.234   1.206   6.654
16770SOL     OW62368   5.930   1.390   7.040
16770SOL    HW162369   5.968   1.470   7.087
16770SOL    HW262370   5.834   1.379   7.066
16771SOL     OW62371   7.248   1.668   7.502
16771SOL    HW162372   7.295   1.662   7.590
16771SOL    HW262373   7.227   1.575   7.469
16772SOL     OW62374   6.871   1.162   5.964
16772SOL    HW162375   6.939   1.199   6.027
16772SOL    HW262376   6.918   1.110   5.891
16773SOL     OW62377   6.159   0.340   5.994
16773SOL    HW162378   6.068   0.299   5.988
16773SOL    HW262379   6.215   0.288   6.058
16774SOL     OW62380   7.137   0.077   6.317
16774SOL    HW162381   7.129   0.058   6.219
16774SOL    HW262382   7.189   0.161   6.330
16775SOL     OW62383   6.767   0.732   6.945
16775SOL    HW162384   6.850   0.750   6.892
16775SOL    HW262385   6.687   0.762   6.894
16776SOL     OW62386   6.846   1.479   6.623
16776SOL    HW162387   6.799   1.391   6.621
16776SOL    HW262388   6.861   1.511   6.529
16777SOL     OW62389   7.216   1.313   7.966
16777SOL    HW162390   7.237   1.409   7.983
16777SOL    HW262391   7.296   1.268   7.926
16778SOL     OW62392   5.855   0.170   7.382
16778SOL    HW162393   5.782   0.207   7.324
16778SOL    HW262394   5.933   0.231   7.380
16779SOL     OW62395   6.760   0.042   8.770
16779SOL    HW162396   6.701   0.024   8.692
16779SOL    HW262397   6.855   0.022   8.747
16780SOL     OW62398   6.427   0.734   9.171
16780SOL    HW162399   6.477   0.703   9.090
16780SOL    HW262400   6.456   0.827   9.193
16781SOL     OW62401   6.168   1.542   7.841
16781SOL    HW162402   6.086   1.535   7.897
16781SOL    HW262403   6.212   1.452   7.835
16782SOL     OW62404   6.130   0.136   7.560
16782SOL    HW162405   6.227   0.122   7.541
16782SOL    HW262406   6.098   0.218   7.512
16783SOL     OW62407   6.992   1.135   8.576
16783SOL    HW162408   6.899   1.109   8.604
16783SOL    HW262409   7.007   1.232   8.595
16784SOL     OW62410   5.978   1.230   8.061
16784SOL    HW162411   5.930   1.189   8.138
16784SOL    HW262412   6.073   1.201   8.062
16785SOL     OW62413   6.255   0.664   7.935
16785SOL    HW162414   6.289   0.735   7.874
16785SOL    HW262415   6.235   0.581   7.882
16786SOL     OW62416   6.895   0.399   9.043
16786SOL    HW162417   6.957   0.462   9.091
16786SOL    HW262418   6.804   0.405   9.084
16787SOL     OW62419   6.075   0.307   8.398
16787SOL    HW162420   6.113   0.397   8.378
16787SOL    HW262421   6.144   0.236   8.381
16788SOL     OW62422   5.737   0.873   7.918
16788SOL    HW162423   5.808   0.862   7.988
16788SOL    HW262424   5.652   0.902   7.961
16789SOL     OW62425   6.300   1.723   8.004
16789SOL    HW162426   6.265   1.659   7.936
16789SOL    HW262427   6.329   1.807   7.958
16790SOL     OW62428   7.389   1.662   7.738
16790SOL    HW162429   7.473   1.608   7.740
16790SOL    HW262430   7.408   1.754   7.773
16791SOL     OW62431   7.122   0.213   8.561
16791SOL    HW162432   7.182   0.208   8.481
16791SOL    HW262433   7.043   0.269   8.539
16792SOL     OW62434   6.608   0.329   7.741
16792SOL    HW162435   6.653   0.413   7.772
16792SOL    HW262436   6.574   0.277   7.819
16793SOL     OW62437   5.727   1.032   9.001
16793SOL    HW162438   5.815   1.062   9.038
16793SOL    HW262439   5.672   0.990   9.074
16794SOL     OW62440   6.158   1.621   8.211
16794SOL    HW162441   6.226   1.660   8.149
16794SOL    HW262442   6.094   1.564   8.159
16795SOL     OW62443   6.549   0.645   8.946
16795SOL    HW162444   6.597   0.560   8.967
16795SOL    HW262445   6.607   0.702   8.888
16796SOL     OW62446   5.799   1.289   7.855
16796SOL    HW162447   5.867   1.266   7.925
16796SOL    HW262448   5.795   1.216   7.787
16797SOL     OW62449   6.794   0.303   7.532
16797SOL    HW162450   6.879   0.253   7.548
16797SOL    HW262451   6.740   0.306   7.616
16798SOL     OW62452   5.901   0.559   8.629
16798SOL    HW162453   5.887   0.461   8.611
16798SOL    HW262454   5.820   0.609   8.600
16799SOL     OW62455   6.948   0.799   8.664
16799SOL    HW162456   7.027   0.859   8.652
16799SOL    HW262457   6.976   0.717   8.715
16800SOL     OW62458   5.915   0.396   7.824
16800SOL    HW162459   5.874   0.392   7.915
16800SOL    HW262460   5.872   0.328   7.765
16801SOL     OW62461   7.076   1.800   8.731
16801SOL    HW162462   7.118   1.736   8.666
16801SOL    HW262463   7.121   1.889   8.724
16802SOL     OW62464   7.415   1.805   8.500
16802SOL    HW162465   7.426   1.832   8.596
16802SOL    HW262466   7.497   1.755   8.470
16803SOL     OW62467   6.406   0.531   8.128
16803SOL    HW162468   6.502   0.556   8.137
16803SOL    HW262469   6.362   0.589   8.060
16804SOL     OW62470   6.801   0.975   7.586
16804SOL    HW162471   6.794   0.912   7.664
16804SOL    HW262472   6.738   0.946   7.514
16805SOL     OW62473   6.644   0.392   9.153
16805SOL    HW162474   6.668   0.406   9.249
16805SOL    HW262475   6.546   0.374   9.145
16806SOL     OW62476   7.266   0.671   7.711
16806SOL    HW162477   7.233   0.586   7.669
16806SOL    HW262478   7.311   0.649   7.798
16807SOL     OW62479   6.405   0.112   9.050
16807SOL    HW162480   6.468   0.041   9.020
16807SOL    HW262481   6.395   0.109   9.149
16808SOL     OW62482   7.214   0.677   8.372
16808SOL    HW162483   7.147   0.751   8.359
16808SOL    HW262484   7.215   0.651   8.469
16809SOL     OW62485   6.939   0.029   8.294
16809SOL    HW162486   6.875   0.105   8.285
16809SOL    HW262487   7.018   0.045   8.235
16810SOL     OW62488   7.329   0.243   9.198
16810SOL    HW162489   7.279   0.298   9.265
16810SOL    HW262490   7.364   0.161   9.243
16811SOL     OW62491   5.500   0.672   7.976
16811SOL    HW162492   5.546   0.620   8.047
16811SOL    HW262493   5.499   0.769   8.000
16812SOL     OW62494   5.869   0.202   8.236
16812SOL    HW162495   5.941   0.250   8.287
16812SOL    HW262496   5.883   0.104   8.242
16813SOL     OW62497   5.875   0.284   8.588
16813SOL    HW162498   5.881   0.197   8.637
16813SOL    HW262499   5.945   0.288   8.517
16814SOL     OW62500   5.719   1.554   7.811
16814SOL    HW162501   5.757   1.461   7.816
16814SOL    HW262502   5.785   1.614   7.766
16815SOL     OW62503   7.013   1.409   8.636
16815SOL    HW162504   7.036   1.472   8.562
16815SOL    HW262505   6.961   1.457   8.707
16816SOL     OW62506   5.702   1.595   8.087
16816SOL    HW162507   5.605   1.608   8.108
16816SOL    HW262508   5.715   1.593   7.988
16817SOL     OW62509   7.286   1.383   8.683
16817SOL    HW162510   7.315   1.413   8.774
16817SOL    HW262511   7.186   1.379   8.680
16818SOL     OW62512   5.643   0.798   7.673
16818SOL    HW162513   5.685   0.815   7.763
16818SOL    HW262514   5.553   0.758   7.686
16819SOL     OW62515   7.092   0.873   7.785
16819SOL    HW162516   7.150   0.795   7.760
16819SOL    HW262517   7.116   0.951   7.727
16820SOL     OW62518   6.317   1.879   8.499
16820SOL    HW162519   6.300   1.910   8.593
16820SOL    HW262520   6.303   1.781   8.494
16821SOL     OW62521   6.917   0.394   7.853
16821SOL    HW162522   6.872   0.463   7.796
16821SOL    HW262523   7.015   0.411   7.855
16822SOL     OW62524   5.908   0.696   8.867
16822SOL    HW162525   5.910   0.632   8.790
16822SOL    HW262526   5.855   0.657   8.942
16823SOL     OW62527   5.688   0.287   8.813
16823SOL    HW162528   5.736   0.316   8.730
16823SOL    HW262529   5.590   0.279   8.794
16824SOL     OW62530   6.501   0.803   8.589
16824SOL    HW162531   6.519   0.733   8.520
16824SOL    HW262532   6.423   0.775   8.645
16825SOL     OW62533   7.192   0.413   7.898
16825SOL    HW162534   7.286   0.384   7.885
16825SOL    HW262535   7.181   0.451   7.990
16826SOL     OW62536   6.376   0.420   7.624
16826SOL    HW162537   6.299   0.412   7.688
16826SOL    HW262538   6.458   0.381   7.665
16827SOL     OW62539   6.604   1.234   7.534
16827SOL    HW162540   6.693   1.250   7.574
16827SOL    HW262541   6.586   1.302   7.463
16828SOL     OW62542   7.302   1.583   7.989
16828SOL    HW162543   7.275   1.667   8.036
16828SOL    HW262544   7.317   1.603   7.892
16829SOL     OW62545   6.688   0.854   8.061
16829SOL    HW162546   6.686   0.760   8.095
16829SOL    HW262547   6.594   0.889   8.054
16830SOL     OW62548   6.932   0.808   8.234
16830SOL    HW162549   6.975   0.881   8.287
16830SOL    HW262550   6.851   0.845   8.187
16831SOL     OW62551   5.845   1.118   8.273
16831SOL    HW162552   5.753   1.157   8.273
16831SOL    HW262553   5.874   1.100   8.367
16832SOL     OW62554   6.432   0.939   8.025
16832SOL    HW162555   6.407   0.906   7.934
16832SOL    HW262556   6.371   1.015   8.050
16833SOL     OW62557   5.582   0.317   7.834
16833SOL    HW162558   5.641   0.307   7.754
16833SOL    HW262559   5.640   0.334   7.915
16834SOL     OW62560   7.260   1.943   7.495
16834SOL    HW162561   7.359   1.955   7.498
16834SOL    HW262562   7.239   1.845   7.488
16835SOL     OW62563   6.320   0.723   8.790
16835SOL    HW162564   6.259   0.784   8.840
16835SOL    HW262565   6.393   0.692   8.851
16836SOL     OW62566   5.589   1.827   8.763
16836SOL    HW162567   5.546   1.917   8.765
16836SOL    HW262568   5.580   1.784   8.852
16837SOL     OW62569   6.370   0.860   7.769
16837SOL    HW162570   6.398   0.953   7.749
16837SOL    HW262571   6.392   0.801   7.692
16838SOL     OW62572   5.865   0.553   8.311
16838SOL    HW162573   5.921   0.517   8.236
16838SOL    HW262574   5.924   0.580   8.387
16839SOL     OW62575   5.885   1.749   7.711
16839SOL    HW162576   5.915   1.810   7.638
16839SOL    HW262577   5.885   1.798   7.798
16840SOL     OW62578   5.583   1.210   8.325
16840SOL    HW162579   5.497   1.202   8.275
16840SOL    HW262580   5.584   1.145   8.401
16841SOL     OW62581   6.333   9.983   7.798
16841SOL    HW162582   6.377   9.940   7.720
16841SOL    HW262583   6.234   9.983   7.784
16842SOL     OW62584   5.528   1.186   7.890
16842SOL    HW162585   5.598   1.252   7.918
16842SOL    HW262586   5.552   1.148   7.800
16843SOL     OW62587   7.122   0.233   9.013
16843SOL    HW162588   7.042   0.288   9.036
16843SOL    HW262589   7.192   0.246   9.083
16844SOL     OW62590   6.786   0.259   8.301
16844SOL    HW162591   6.812   0.319   8.226
16844SOL    HW262592   6.823   0.295   8.387
16845SOL     OW62593   7.032   0.175   7.600
16845SOL    HW162594   7.115   0.123   7.581
16845SOL    HW262595   6.989   0.140   7.684
16846SOL     OW62596   7.111   9.963   9.042
16846SOL    HW162597   7.087   9.925   8.952
16846SOL    HW262598   7.109   0.063   9.038
16847SOL     OW62599   6.268   0.298   8.094
16847SOL    HW162600   6.262   0.235   8.171
16847SOL    HW262601   6.322   0.378   8.120
16848SOL     OW62602   6.865   0.640   8.453
16848SOL    HW162603   6.887   0.683   8.366
16848SOL    HW262604   6.889   0.703   8.528
16849SOL     OW62605   7.135   0.006   7.882
16849SOL    HW162606   7.138   9.940   7.807
16849SOL    HW262607   7.046   0.051   7.882
16850SOL     OW62608   6.114   1.477   9.168
16850SOL    HW162609   6.066   1.521   9.093
16850SOL    HW262610   6.204   1.519   9.181
16851SOL     OW62611   5.968   1.131   9.104
16851SOL    HW162612   6.020   1.131   9.018
16851SOL    HW262613   5.978   1.220   9.149
16852SOL     OW62614   5.651   1.417   8.497
16852SOL    HW162615   5.631   1.352   8.423
16852SOL    HW262616   5.574   1.419   8.561
16853SOL     OW62617   6.669   0.604   8.169
16853SOL    HW162618   6.750   0.546   8.156
16853SOL    HW262619   6.642   0.601   8.265
16854SOL     OW62620   6.900   0.373   8.523
16854SOL    HW162621   6.892   0.470   8.500
16854SOL    HW262622   6.865   0.358   8.616
16855SOL     OW62623   7.094   0.538   9.157
16855SOL    HW162624   7.169   0.546   9.091
16855SOL    HW262625   7.128   0.495   9.241
16856SOL     OW62626   6.822   0.818   7.814
16856SOL    HW162627   6.780   0.840   7.902
16856SOL    HW262628   6.919   0.842   7.815
16857SOL     OW62629   7.141   0.893   8.052
16857SOL    HW162630   7.113   0.887   7.955
16857SOL    HW262631   7.076   0.841   8.108
16858SOL     OW62632   7.208   0.984   8.991
16858SOL    HW162633   7.109   0.977   8.981
16858SOL    HW262634   7.247   1.030   8.911
16859SOL     OW62635   7.167   0.420   7.625
16859SOL    HW162636   7.183   0.415   7.723
16859SOL    HW262637   7.119   0.338   7.595
16860SOL     OW62638   6.274   1.601   8.804
16860SOL    HW162639   6.193   1.657   8.784
16860SOL    HW262640   6.259   1.508   8.770
16861SOL     OW62641   5.693   0.320   9.084
16861SOL    HW162642   5.696   0.307   8.985
16861SOL    HW262643   5.602   0.299   9.117
16862SOL     OW62644   5.573   1.704   9.012
16862SOL    HW162645   5.658   1.725   9.059
16862SOL    HW262646   5.496   1.715   9.076
16863SOL     OW62647   5.737   0.355   8.051
16863SOL    HW162648   5.697   0.431   8.102
16863SOL    HW262649   5.791   0.298   8.113
16864SOL     OW62650   6.908   1.590   8.823
16864SOL    HW162651   6.838   1.621   8.887
16864SOL    HW262652   6.955   1.670   8.783
16865SOL     OW62653   5.776   0.553   7.619
16865SOL    HW162654   5.838   0.530   7.693
16865SOL    HW262655   5.737   0.644   7.635
16866SOL     OW62656   7.249   0.310   8.785
16866SOL    HW162657   7.200   0.271   8.863
16866SOL    HW262658   7.206   0.279   8.700
16867SOL     OW62659   5.978   1.833   8.180
16867SOL    HW162660   5.939   1.845   8.088
16867SOL    HW262661   6.028   1.747   8.184
16868SOL     OW62662   5.886   1.340   8.623
16868SOL    HW162663   5.875   1.355   8.721
16868SOL    HW262664   5.807   1.376   8.575
16869SOL     OW62665   6.792   1.649   9.284
16869SOL    HW162666   6.860   1.578   9.301
16869SOL    HW262667   6.772   1.653   9.186
16870SOL     OW62668   6.281   1.289   7.856
16870SOL    HW162669   6.348   1.237   7.803
16870SOL    HW262670   6.262   1.240   7.941
16871SOL     OW62671   5.885   0.867   8.155
16871SOL    HW162672   5.890   0.960   8.192
16871SOL    HW262673   5.974   0.823   8.162
16872SOL     OW62674   5.756   0.276   7.625
16872SOL    HW162675   5.784   0.219   7.547
16872SOL    HW262676   5.757   0.373   7.597
16873SOL     OW62677   5.615   0.556   8.201
16873SOL    HW162678   5.544   0.600   8.255
16873SOL    HW262679   5.703   0.564   8.248
16874SOL     OW62680   6.687   0.654   7.456
16874SOL    HW162681   6.678   0.744   7.414
16874SOL    HW262682   6.755   0.600   7.406
16875SOL     OW62683   6.435   0.684   7.568
16875SOL    HW162684   6.525   0.678   7.526
16875SOL    HW262685   6.400   0.592   7.586
16876SOL     OW62686   6.890   0.123   7.842
16876SOL    HW162687   6.824   0.090   7.909
16876SOL    HW262688   6.895   0.223   7.847
16877SOL     OW62689   7.002   0.554   8.785
16877SOL    HW162690   7.051   0.549   8.872
16877SOL    HW262691   6.936   0.479   8.780
16878SOL     OW62692   5.481   0.039   7.545
16878SOL    HW162693   5.419   9.965   7.570
16878SOL    HW262694   5.541   0.059   7.623
16879SOL     OW62695   5.878   1.077   8.547
16879SOL    HW162696   5.874   1.017   8.627
16879SOL    HW262697   5.895   1.171   8.576
16880SOL     OW62698   7.187   1.056   7.599
16880SOL    HW162699   7.284   1.078   7.612
16880SOL    HW262700   7.169   1.041   7.502
16881SOL     OW62701   6.154   0.670   8.577
16881SOL    HW162702   6.211   0.689   8.657
16881SOL    HW262703   6.064   0.638   8.608
16882SOL     OW62704   6.705   0.042   8.016
16882SOL    HW162705   6.697   9.971   8.087
16882SOL    HW262706   6.616   0.085   8.003
16883SOL     OW62707   6.733   1.698   9.017
16883SOL    HW162708   6.644   1.705   8.972
16883SOL    HW262709   6.765   1.790   9.041
16884SOL     OW62710   6.273   0.130   8.330
16884SOL    HW162711   6.243   0.047   8.377
16884SOL    HW262712   6.372   0.140   8.339
16885SOL     OW62713   5.814   1.829   8.601
16885SOL    HW162714   5.787   1.782   8.517
16885SOL    HW262715   5.736   1.829   8.665
16886SOL     OW62716   6.172   0.990   8.294
16886SOL    HW162717   6.166   0.899   8.253
16886SOL    HW262718   6.167   0.981   8.394
16887SOL     OW62719   5.609   1.023   8.519
16887SOL    HW162720   5.704   1.042   8.541
16887SOL    HW262721   5.604   0.949   8.451
16888SOL     OW62722   5.787   9.909   7.835
16888SOL    HW162723   5.790   9.875   7.929
16888SOL    HW262724   5.704   9.963   7.822
16889SOL     OW62725   6.164   0.687   9.108
16889SOL    HW162726   6.142   0.757   9.040
16889SOL    HW262727   6.258   0.701   9.141
16890SOL     OW62728   5.648   1.082   7.652
16890SOL    HW162729   5.661   0.985   7.671
16890SOL    HW262730   5.682   1.103   7.560
16891SOL     OW62731   7.349   0.265   8.218
16891SOL    HW162732   7.383   0.238   8.308
16891SOL    HW262733   7.426   0.281   8.156
16892SOL     OW62734   6.758   0.573   7.716
16892SOL    HW162735   6.777   0.661   7.760
16892SOL    HW262736   6.729   0.589   7.621
16893SOL     OW62737   7.085   1.457   8.989
16893SOL    HW162738   7.032   1.396   9.047
16893SOL    HW262739   7.023   1.511   8.931
16894SOL     OW62740   5.798   0.918   8.759
16894SOL    HW162741   5.839   0.834   8.795
16894SOL    HW262742   5.766   0.974   8.835
16895SOL     OW62743   6.186   1.622   8.482
16895SOL    HW162744   6.180   1.615   8.383
16895SOL    HW262745   6.099   1.656   8.518
16896SOL     OW62746   6.253   1.161   8.104
16896SOL    HW162747   6.314   1.229   8.145
16896SOL    HW262748   6.221   1.098   8.175
16897SOL     OW62749   5.658   0.841   8.316
16897SOL    HW162750   5.742   0.839   8.262
16897SOL    HW262751   5.579   0.848   8.255
16898SOL     OW62752   5.574   0.935   9.197
16898SOL    HW162753   5.474   0.936   9.188
16898SOL    HW262754   5.600   0.887   9.281
16899SOL     OW62755   6.489   1.753   8.897
16899SOL    HW162756   6.428   1.689   8.851
16899SOL    HW262757   6.437   1.806   8.964
16900SOL     OW62758   6.098   0.423   9.142
16900SOL    HW162759   6.150   0.369   9.075
16900SOL    HW262760   6.122   0.520   9.133
16901SOL     OW62761   7.090   0.978   8.376
16901SOL    HW162762   7.141   1.036   8.313
16901SOL    HW262763   7.058   1.033   8.453
16902SOL     OW62764   6.839   0.318   8.789
16902SOL    HW162765   6.856   0.341   8.885
16902SOL    HW262766   6.798   0.227   8.782
16903SOL     OW62767   5.553   0.048   7.821
16903SOL    HW162768   5.461   0.022   7.851
16903SOL    HW262769   5.565   0.147   7.835
16904SOL     OW62770   6.765   0.138   9.202
16904SOL    HW162771   6.848   0.158   9.255
16904SOL    HW262772   6.724   0.223   9.171
16905SOL     OW62773   5.967   1.613   8.973
16905SOL    HW162774   5.907   1.670   9.029
16905SOL    HW262775   5.994   1.663   8.891
16906SOL     OW62776   7.349   1.466   8.932
16906SOL    HW162777   7.393   1.554   8.953
16906SOL    HW262778   7.255   1.468   8.965
16907SOL     OW62779   6.593   0.590   8.433
16907SOL    HW162780   6.690   0.601   8.458
16907SOL    HW262781   6.557   0.508   8.477
16908SOL     OW62782   5.968   1.504   8.055
16908SOL    HW162783   5.968   1.404   8.057
16908SOL    HW262784   5.876   1.538   8.074
16909SOL     OW62785   5.808   1.774   9.140
16909SOL    HW162786   5.830   1.871   9.134
16909SOL    HW262787   5.813   1.745   9.236
16910SOL     OW62788   5.671   1.300   9.054
16910SOL    HW162789   5.664   1.204   9.030
16910SOL    HW262790   5.596   1.351   9.011
16911SOL     OW62791   5.707   1.669   8.392
16911SOL    HW162792   5.695   1.575   8.425
16911SOL    HW262793   5.726   1.667   8.293
16912SOL     OW62794   6.543   0.154   8.374
16912SOL    HW162795   6.627   0.188   8.331
16912SOL    HW262796   6.566   0.083   8.440
16913SOL     OW62797   6.692   1.113   7.926
16913SOL    HW162798   6.780   1.160   7.935
16913SOL    HW262799   6.691   1.033   7.985
16914SOL     OW62800   7.161   0.470   8.179
16914SOL    HW162801   7.178   0.546   8.242
16914SOL    HW262802   7.226   0.397   8.198
16915SOL     OW62803   6.479   1.117   7.749
16915SOL    HW162804   6.514   1.155   7.663
16915SOL    HW262805   6.551   1.117   7.818
16916SOL     OW62806   6.383   0.091   7.476
16916SOL    HW162807   6.425   0.015   7.525
16916SOL    HW262808   6.450   0.165   7.465
16917SOL     OW62809   6.030   0.465   8.108
16917SOL    HW162810   6.101   0.395   8.110
16917SOL    HW262811   6.056   0.538   8.045
16918SOL     OW62812   6.065   1.155   8.844
16918SOL    HW162813   6.137   1.188   8.784
16918SOL    HW262814   5.996   1.226   8.856
16919SOL     OW62815   7.301   1.108   8.766
16919SOL    HW162816   7.292   1.204   8.744
16919SOL    HW262817   7.357   1.062   8.696
16920SOL     OW62818   6.205   1.772   7.681
16920SOL    HW162819   6.119   1.804   7.641
16920SOL    HW262820   6.191   1.684   7.726
16921SOL     OW62821   6.039   1.755   8.745
16921SOL    HW162822   6.099   1.835   8.747
16921SOL    HW262823   5.956   1.778   8.694
16922SOL     OW62824   5.761   0.586   9.073
16922SOL    HW162825   5.747   0.488   9.086
16922SOL    HW262826   5.814   0.621   9.150
16923SOL     OW62827   7.207   1.630   8.561
16923SOL    HW162828   7.274   1.691   8.519
16923SOL    HW262829   7.254   1.547   8.593
16924SOL     OW62830   5.497   0.948   8.034
16924SOL    HW162831   5.514   1.037   7.992
16924SOL    HW262832   5.400   0.941   8.058
16925SOL     OW62833   6.117   0.873   8.906
16925SOL    HW162834   6.035   0.817   8.888
16925SOL    HW262835   6.098   0.968   8.881
16926SOL     OW62836   7.217   1.124   8.174
16926SOL    HW162837   7.207   1.202   8.112
16926SOL    HW262838   7.190   1.040   8.127
16927SOL     OW62839   6.211   0.543   8.348
16927SOL    HW162840   6.306   0.541   8.316
16927SOL    HW262841   6.205   0.594   8.434
16928SOL     OW62842   6.157   1.389   8.649
16928SOL    HW162843   6.061   1.368   8.632
16928SOL    HW262844   6.189   1.457   8.583
16929SOL     OW62845   5.692   0.726   8.568
16929SOL    HW162846   5.708   0.803   8.630
16929SOL    HW262847   5.685   0.759   8.474
16930SOL     OW62848   5.886   1.363   8.895
16930SOL    HW162849   5.922   1.452   8.920
16930SOL    HW262850   5.809   1.340   8.955
16931SOL     OW62851   7.233   1.728   9.174
16931SOL    HW162852   7.192   1.683   9.253
16931SOL    HW262853   7.162   1.747   9.106
16932SOL     OW62854   6.951   1.215   7.922
16932SOL    HW162855   7.041   1.251   7.943
16932SOL    HW262856   6.937   1.214   7.822
16933SOL     OW62857   6.191   0.411   7.836
16933SOL    HW162858   6.092   0.404   7.823
16933SOL    HW262859   6.219   0.353   7.912
16934SOL     OW62860   7.168   0.068   8.152
16934SOL    HW162861   7.162   0.046   8.054
16934SOL    HW262862   7.231   0.144   8.165
16935SOL     OW62863   6.696   0.794   8.777
16935SOL    HW162864   6.788   0.805   8.738
16935SOL    HW262865   6.628   0.811   8.706
16936SOL     OW62866   6.137   0.748   8.173
16936SOL    HW162867   6.153   0.669   8.233
16936SOL    HW262868   6.183   0.733   8.085
16937SOL     OW62869   6.889   0.441   8.123
16937SOL    HW162870   6.887   0.420   8.025
16937SOL    HW262871   6.984   0.457   8.152
16938SOL     OW62872   6.663   1.474   0.011
16938SOL    HW162873   6.729   1.399   0.000
16938SOL    HW262874   6.610   1.484   9.927
16939SOL     OW62875   7.224   1.256   9.855
16939SOL    HW162876   7.226   1.352   9.884
16939SOL    HW262877   7.314   1.231   9.817
16940SOL     OW62878   5.904   0.273   9.252
16940SOL    HW162879   5.823   0.278   9.192
16940SOL    HW262880   5.975   0.334   9.217
16941SOL     OW62881   6.113   1.466   9.627
16941SOL    HW162882   6.045   1.481   9.699
16941SOL    HW262883   6.189   1.413   9.664
16942SOL     OW62884   6.086   0.080   9.324
16942SOL    HW162885   6.177   0.117   9.304
16942SOL    HW262886   6.016   0.146   9.294
16943SOL     OW62887   5.998   1.355   9.383
16943SOL    HW162888   6.041   1.401   9.305
16943SOL    HW262889   6.026   1.400   9.468
16944SOL     OW62890   5.848   0.851   9.621
16944SOL    HW162891   5.902   0.935   9.610
16944SOL    HW262892   5.773   0.868   9.685
16945SOL     OW62893   6.500   1.749   9.856
16945SOL    HW162894   6.509   1.652   9.834
16945SOL    HW262895   6.434   1.791   9.793
16946SOL     OW62896   6.578   0.365   9.650
16946SOL    HW162897   6.647   0.421   9.695
16946SOL    HW262898   6.539   0.301   9.716
16947SOL     OW62899   5.934   0.691   9.260
16947SOL    HW162900   5.929   0.788   9.283
16947SOL    HW262901   6.019   0.673   9.210
16948SOL     OW62902   7.216   1.514   9.973
16948SOL    HW162903   7.278   1.475   0.040
16948SOL    HW262904   7.175   1.597   0.010
16949SOL     OW62905   5.823   1.331   9.636
16949SOL    HW162906   5.863   1.371   9.718
16949SOL    HW262907   5.854   1.236   9.626
16950SOL     OW62908   6.719   0.400   9.412
16950SOL    HW162909   6.809   0.418   9.451
16950SOL    HW262910   6.654   0.378   9.485
16951SOL     OW62911   5.911   0.235   9.725
16951SOL    HW162912   5.974   0.299   9.768
16951SOL    HW262913   5.872   0.276   9.642
16952SOL     OW62914   7.391   1.706   0.247
16952SOL    HW162915   7.381   1.758   0.332
16952SOL    HW262916   7.482   1.719   0.209
16953SOL     OW62917   7.319   0.622   9.493
16953SOL    HW162918   7.362   0.575   9.416
16953SOL    HW262919   7.360   0.591   9.578
16954SOL     OW62920   6.575   1.818   9.352
16954SOL    HW162921   6.647   1.751   9.335
16954SOL    HW262922   6.615   1.899   9.395
16955SOL     OW62923   5.561   0.595   9.776
16955SOL    HW162924   5.487   0.577   9.841
16955SOL    HW262925   5.602   0.684   9.796
16956SOL     OW62926   5.691   1.560   9.572
16956SOL    HW162927   5.730   1.469   9.585
16956SOL    HW262928   5.744   1.610   9.504
16957SOL     OW62929   5.716   1.681   9.819
16957SOL    HW162930   5.640   1.744   9.834
16957SOL    HW262931   5.705   1.636   9.731
16958SOL     OW62932   5.971   0.953   9.312
16958SOL    HW162933   5.965   1.013   9.232
16958SOL    HW262934   5.958   1.007   9.395
16959SOL     OW62935   5.630   0.822   9.437
16959SOL    HW162936   5.715   0.807   9.488
16959SOL    HW262937   5.559   0.760   9.471
16960SOL     OW62938   7.119   0.767   9.601
16960SOL    HW162939   7.185   0.711   9.551
16960SOL    HW262940   7.125   0.862   9.568
16961SOL     OW62941   6.232   0.889   9.393
16961SOL    HW162942   6.258   0.794   9.408
16961SOL    HW262943   6.139   0.893   9.356
16962SOL     OW62944   6.928   0.443   9.592
16962SOL    HW162945   6.922   0.542   9.601
16962SOL    HW262946   7.021   0.413   9.613
16963SOL     OW62947   7.180   0.372   9.650
16963SOL    HW162948   7.276   0.348   9.635
16963SOL    HW262949   7.170   0.414   9.740
16964SOL     OW62950   6.366   0.356   9.478
16964SOL    HW162951   6.281   0.363   9.531
16964SOL    HW262952   6.444   0.363   9.540
16965SOL     OW62953   7.019   0.938   9.990
16965SOL    HW162954   6.928   0.935   0.032
16965SOL    HW262955   7.015   0.994   9.907
16966SOL     OW62956   6.475   1.191   9.927
16966SOL    HW162957   6.567   1.157   9.906
16966SOL    HW262958   6.473   1.225   0.021
16967SOL     OW62959   5.593   0.342   9.664
16967SOL    HW162960   5.669   0.342   9.600
16967SOL    HW262961   5.592   0.429   9.715
16968SOL     OW62962   5.842   1.761   9.425
16968SOL    HW162963   5.930   1.785   9.386
16968SOL    HW262964   5.832   1.803   9.515
16969SOL     OW62965   6.334   0.017   9.667
16969SOL    HW162966   6.387   9.971   9.597
16969SOL    HW262967   6.237   0.015   9.643
16970SOL     OW62968   6.987   0.149   9.375
16970SOL    HW162969   7.024   0.059   9.352
16970SOL    HW262970   6.952   0.146   9.469
16971SOL     OW62971   7.114   0.021   9.747
16971SOL    HW162972   7.070   9.939   9.783
16971SOL    HW262973   7.045   0.080   9.706
16972SOL     OW62974   7.198   0.769   9.863
16972SOL    HW162975   7.162   0.766   9.769
16972SOL    HW262976   7.139   0.826   9.920
16973SOL     OW62977   7.155   0.367   9.367
16973SOL    HW162978   7.171   0.395   9.462
16973SOL    HW262979   7.088   0.292   9.366
16974SOL     OW62980   5.880   0.600   9.512
16974SOL    HW162981   5.903   0.624   9.418
16974SOL    HW262982   5.879   0.683   9.568
16975SOL     OW62983   5.910   1.821   9.957
16975SOL    HW162984   5.836   1.775   9.908
16975SOL    HW262985   5.997   1.805   9.909
16976SOL     OW62986   6.323   1.301   9.725
16976SOL    HW162987   6.303   1.232   9.656
16976SOL    HW262988   6.362   1.258   9.806
16977SOL     OW62989   5.808   0.343   9.500
16977SOL    HW162990   5.837   0.306   9.411
16977SOL    HW262991   5.832   0.440   9.505
16978SOL     OW62992   5.986   1.118   9.533
16978SOL    HW162993   6.083   1.110   9.556
16978SOL    HW262994   5.971   1.199   9.477
16979SOL     OW62995   6.329   0.628   9.402
16979SOL    HW162996   6.375   0.656   9.318
16979SOL    HW262997   6.344   0.530   9.417
16980SOL     OW62998   6.888   0.163   9.642
16980SOL    HW162999   6.834   0.145   9.723
16980SOL    HW263000   6.895   0.262   9.628
16981SOL     OW63001   5.505   0.149   9.412
16981SOL    HW163002   5.474   0.058   9.438
16981SOL    HW263003   5.569   0.184   9.481
16982SOL     OW63004   7.147   1.029   9.517
16982SOL    HW163005   7.242   1.060   9.504
16982SOL    HW263006   7.091   1.062   9.442
16983SOL     OW63007   6.735   0.124   9.864
16983SOL    HW163008   6.764   0.158   9.953
16983SOL    HW263009   6.639   0.147   9.849
16984SOL     OW63010   5.809   9.998   9.618
16984SOL    HW163011   5.854   0.081   9.651
16984SOL    HW263012   5.716   9.994   9.653
16985SOL     OW63013   5.610   1.087   9.513
16985SOL    HW163014   5.626   0.996   9.476
16985SOL    HW263015   5.657   1.155   9.457
16986SOL     OW63016   7.319   0.334   0.083
16986SOL    HW163017   7.250   0.330   0.156
16986SOL    HW263018   7.391   0.267   0.101
16987SOL     OW63019   6.343   1.624   9.242
16987SOL    HW163020   6.298   1.638   9.330
16987SOL    HW263021   6.440   1.646   9.250
16988SOL     OW63022   6.523   1.491   9.773
16988SOL    HW163023   6.569   1.496   9.684
16988SOL    HW263024   6.443   1.431   9.765
16989SOL     OW63025   5.566   0.070   9.724
16989SOL    HW163026   5.468   0.048   9.718
16989SOL    HW263027   5.578   0.169   9.725
16990SOL     OW63028   5.927   1.487   9.836
16990SOL    HW163029   5.960   1.457   9.925
16990SOL    HW263030   5.852   1.552   9.848
16991SOL     OW63031   7.172   0.489   9.891
16991SOL    HW163032   7.188   0.587   9.893
16991SOL    HW263033   7.223   0.445   9.965
16992SOL     OW63034   6.266   1.130   9.517
16992SOL    HW163035   6.291   1.192   9.442
16992SOL    HW263036   6.265   1.036   9.484
16993SOL     OW63037   6.361   0.127   9.320
16993SOL    HW163038   6.387   0.047   9.374
16993SOL    HW263039   6.371   0.210   9.375
16994SOL     OW63040   5.738   1.254   9.329
16994SOL    HW163041   5.711   1.277   9.236
16994SOL    HW263042   5.821   1.304   9.353
16995SOL     OW63043   6.212   1.673   9.476
16995SOL    HW163044   6.140   1.733   9.440
16995SOL    HW263045   6.171   1.601   9.531
16996SOL     OW63046   5.617   0.904   9.755
16996SOL    HW163047   5.599   0.984   9.698
16996SOL    HW263048   5.537   0.885   9.812
16997SOL     OW63049   7.035   1.085   9.764
16997SOL    HW163050   7.094   1.156   9.803
16997SOL    HW263051   7.068   1.060   9.674
16998SOL     OW63052   7.201   0.080   0.002
16998SOL    HW163053   7.173   0.065   9.907
16998SOL    HW263054   7.235   0.173   0.012
16999SOL     OW63055   6.625   3.308   0.774
16999SOL    HW163056   6.718   3.333   0.798
16999SOL    HW263057   6.605   3.337   0.680
17000SOL     OW63058   7.255   3.118   0.569
17000SOL    HW163059   7.236   3.208   0.529
17000SOL    HW263060   7.332   3.076   0.522
17001SOL     OW63061   7.172   2.467   1.400
17001SOL    HW163062   7.096   2.422   1.445
17001SOL    HW263063   7.224   2.521   1.466
17002SOL     OW63064   5.926   2.068   0.079
17002SOL    HW163065   5.905   1.978   0.040
17002SOL    HW263066   5.954   2.130   0.007
17003SOL     OW63067   6.874   3.392   0.849
17003SOL    HW163068   6.887   3.490   0.858
17003SOL    HW263069   6.962   3.347   0.841
17004SOL     OW63070   6.788   1.854   1.339
17004SOL    HW163071   6.709   1.807   1.377
17004SOL    HW263072   6.834   1.794   1.274
17005SOL     OW63073   6.522   2.719   1.747
17005SOL    HW163074   6.503   2.663   1.666
17005SOL    HW263075   6.436   2.739   1.794
17006SOL     OW63076   6.132   1.925   0.218
17006SOL    HW163077   6.211   1.947   0.161
17006SOL    HW263078   6.053   1.979   0.189
17007SOL     OW63079   7.136   2.893   1.541
17007SOL    HW163080   7.042   2.913   1.514
17007SOL    HW263081   7.198   2.928   1.471
17008SOL     OW63082   7.010   2.905   1.220
17008SOL    HW163083   6.948   2.908   1.299
17008SOL    HW263084   7.055   2.994   1.210
17009SOL     OW63085   6.530   3.208   1.470
17009SOL    HW163086   6.446   3.262   1.461
17009SOL    HW263087   6.522   3.125   1.415
17010SOL     OW63088   5.952   3.173   0.741
17010SOL    HW163089   5.925   3.105   0.809
17010SOL    HW263090   6.019   3.132   0.679
17011SOL     OW63091   6.213   2.462   0.556
17011SOL    HW163092   6.165   2.515   0.487
17011SOL    HW263093   6.247   2.377   0.516
17012SOL     OW63094   6.811   2.378   1.752
17012SOL    HW163095   6.907   2.360   1.774
17012SOL    HW263096   6.759   2.293   1.758
17013SOL     OW63097   5.933   3.251   0.203
17013SOL    HW163098   5.966   3.293   0.118
17013SOL    HW263099   5.977   3.296   0.281
17014SOL     OW63100   5.854   2.653   0.552
17014SOL    HW163101   5.877   2.687   0.643
17014SOL    HW263102   5.771   2.598   0.557
17015SOL     OW63103   6.383   3.619   0.704
17015SOL    HW163104   6.462   3.668   0.740
17015SOL    HW263105   6.346   3.669   0.626
17016SOL     OW63106   7.210   3.374   0.447
17016SOL    HW163107   7.282   3.425   0.399
17016SOL    HW263108   7.122   3.391   0.401
17017SOL     OW63109   7.243   2.161   1.116
17017SOL    HW163110   7.271   2.257   1.128
17017SOL    HW263111   7.144   2.155   1.124
17018SOL     OW63112   5.686   2.831   1.586
17018SOL    HW163113   5.778   2.868   1.598
17018SOL    HW263114   5.645   2.813   1.676
17019SOL     OW63115   5.951   2.516   9.973
17019SOL    HW163116   5.994   2.605   9.987
17019SOL    HW263117   6.018   2.452   9.935
17020SOL     OW63118   6.225   3.456   0.868
17020SOL    HW163119   6.275   3.514   0.803
17020SOL    HW263120   6.143   3.420   0.824
17021SOL     OW63121   6.524   2.506   1.552
17021SOL    HW163122   6.564   2.430   1.603
17021SOL    HW263123   6.594   2.550   1.497
17022SOL     OW63124   7.129   3.297   0.866
17022SOL    HW163125   7.148   3.339   0.954
17022SOL    HW263126   7.192   3.334   0.797
17023SOL     OW63127   5.791   3.120   0.521
17023SOL    HW163128   5.831   3.153   0.606
17023SOL    HW263129   5.851   3.050   0.481
17024SOL     OW63130   6.756   2.103   0.046
17024SOL    HW163131   6.822   2.055   0.104
17024SOL    HW263132   6.799   2.187   0.010
17025SOL     OW63133   5.954   2.449   1.192
17025SOL    HW163134   5.982   2.450   1.288
17025SOL    HW263135   5.856   2.470   1.186
17026SOL     OW63136   6.978   2.649   1.325
17026SOL    HW163137   7.010   2.737   1.288
17026SOL    HW263138   7.056   2.598   1.361
17027SOL     OW63139   5.988   2.185   0.504
17027SOL    HW163140   5.934   2.180   0.588
17027SOL    HW263141   5.926   2.192   0.425
17028SOL     OW63142   7.087   3.618   1.328
17028SOL    HW163143   7.011   3.615   1.263
17028SOL    HW263144   7.174   3.618   1.277
17029SOL     OW63145   7.301   2.421   1.164
17029SOL    HW163146   7.393   2.457   1.176
17029SOL    HW263147   7.248   2.436   1.248
17030SOL     OW63148   7.346   3.623   1.188
17030SOL    HW163149   7.381   3.653   1.277
17030SOL    HW263150   7.422   3.602   1.127
17031SOL     OW63151   6.654   2.154   1.773
17031SOL    HW163152   6.675   2.133   1.869
17031SOL    HW263153   6.565   2.116   1.749
17032SOL     OW63154   7.274   2.387   0.291
17032SOL    HW163155   7.206   2.315   0.307
17032SOL    HW263156   7.321   2.407   0.377
17033SOL     OW63157   6.353   1.916   1.739
17033SOL    HW163158   6.368   1.821   1.713
17033SOL    HW263159   6.343   1.922   1.838
17034SOL     OW63160   7.241   2.538   0.921
17034SOL    HW163161   7.181   2.617   0.926
17034SOL    HW263162   7.243   2.492   1.010
17035SOL     OW63163   6.641   3.169   1.735
17035SOL    HW163164   6.686   3.080   1.725
17035SOL    HW263165   6.591   3.191   1.651
17036SOL     OW63166   6.262   2.998   1.713
17036SOL    HW163167   6.209   3.082   1.717
17036SOL    HW263168   6.288   2.971   1.806
17037SOL     OW63169   6.970   1.799   0.915
17037SOL    HW163170   6.921   1.885   0.929
17037SOL    HW263171   7.055   1.817   0.865
17038SOL     OW63172   7.275   2.053   1.762
17038SOL    HW163173   7.237   2.077   1.851
17038SOL    HW263174   7.247   1.960   1.738
17039SOL     OW63175   5.610   2.514   0.607
17039SOL    HW163176   5.616   2.453   0.686
17039SOL    HW263177   5.575   2.603   0.637
17040SOL     OW63178   6.489   2.699   0.926
17040SOL    HW163179   6.543   2.737   0.852
17040SOL    HW263180   6.414   2.645   0.887
17041SOL     OW63181   5.699   3.341   0.383
17041SOL    HW163182   5.720   3.257   0.433
17041SOL    HW263183   5.750   3.341   0.297
17042SOL     OW63184   7.023   3.189   1.256
17042SOL    HW163185   6.974   3.219   1.174
17042SOL    HW263186   6.962   3.194   1.335
17043SOL     OW63187   5.701   3.488   0.624
17043SOL    HW163188   5.606   3.490   0.656
17043SOL    HW263189   5.705   3.443   0.535
17044SOL     OW63190   7.288   3.239   1.285
17044SOL    HW163191   7.313   3.270   1.377
17044SOL    HW263192   7.190   3.219   1.281
17045SOL     OW63193   6.033   2.773   9.999
17045SOL    HW163194   5.988   2.820   9.923
17045SOL    HW263195   6.050   2.839   0.072
17046SOL     OW63196   6.489   2.986   1.306
17046SOL    HW163197   6.533   2.901   1.276
17046SOL    HW263198   6.427   3.018   1.234
17047SOL     OW63199   5.624   2.619   0.215
17047SOL    HW163200   5.711   2.576   0.240
17047SOL    HW263201   5.554   2.595   0.283
17048SOL     OW63202   7.254   2.666   0.292
17048SOL    HW163203   7.228   2.570   0.284
17048SOL    HW263204   7.204   2.720   0.225
17049SOL     OW63205   6.414   3.697   1.018
17049SOL    HW163206   6.459   3.609   1.002
17049SOL    HW263207   6.332   3.683   1.072
17050SOL     OW63208   5.790   2.426   1.541
17050SOL    HW163209   5.765   2.336   1.506
17050SOL    HW263210   5.757   2.436   1.636
17051SOL     OW63211   5.719   2.166   1.468
17051SOL    HW163212   5.788   2.107   1.426
17051SOL    HW263213   5.629   2.145   1.429
17052SOL     OW63214   6.551   2.740   1.191
17052SOL    HW163215   6.541   2.728   1.092
17052SOL    HW263216   6.477   2.691   1.238
17053SOL     OW63217   7.176   2.176   0.493
17053SOL    HW163218   7.275   2.170   0.476
17053SOL    HW263219   7.160   2.224   0.578
17054SOL     OW63220   6.479   3.429   0.975
17054SOL    HW163221   6.535   3.385   0.904
17054SOL    HW263222   6.383   3.424   0.950
17055SOL     OW63223   6.385   2.197   0.228
17055SOL    HW163224   6.338   2.205   0.316
17055SOL    HW263225   6.468   2.253   0.230
17056SOL     OW63226   7.288   3.450   0.699
17056SOL    HW163227   7.254   3.540   0.728
17056SOL    HW263228   7.254   3.428   0.608
17057SOL     OW63229   6.619   2.838   0.724
17057SOL    HW163230   6.712   2.816   0.755
17057SOL    HW263231   6.593   2.928   0.760
17058SOL     OW63232   6.391   3.482   1.630
17058SOL    HW163233   6.339   3.429   1.562
17058SOL    HW263234   6.396   3.430   1.715
17059SOL     OW63235   6.848   2.815   0.871
17059SOL    HW163236   6.944   2.797   0.890
17059SOL    HW263237   6.812   2.881   0.938
17060SOL     OW63238   5.853   2.985   0.915
17060SOL    HW163239   5.756   3.011   0.917
17060SOL    HW263240   5.881   2.954   1.005
17061SOL     OW63241   6.390   2.838   0.563
17061SOL    HW163242   6.483   2.814   0.590
17061SOL    HW263243   6.345   2.886   0.639
17062SOL     OW63244   6.810   3.221   1.436
17062SOL    HW163245   6.850   3.308   1.463
17062SOL    HW263246   6.711   3.224   1.448
17063SOL     OW63247   5.593   2.281   0.434
17063SOL    HW163248   5.671   2.246   0.383
17063SOL    HW263249   5.623   2.357   0.493
17064SOL     OW63250   7.145   3.638   0.230
17064SOL    HW163251   7.235   3.604   0.256
17064SOL    HW263252   7.138   3.644   0.131
17065SOL     OW63253   6.357   2.623   1.353
17065SOL    HW163254   6.345   2.704   1.410
17065SOL    HW263255   6.412   2.555   1.402
17066SOL     OW63256   5.611   3.693   1.391
17066SOL    HW163257   5.562   3.780   1.393
17066SOL    HW263258   5.600   3.647   1.479
17067SOL     OW63259   5.882   2.396   0.922
17067SOL    HW163260   5.961   2.374   0.864
17067SOL    HW263261   5.913   2.407   1.017
17068SOL     OW63262   6.869   3.605   1.159
17068SOL    HW163263   6.899   3.616   1.064
17068SOL    HW263264   6.797   3.537   1.163
17069SOL     OW63265   5.586   3.044   0.964
17069SOL    HW163266   5.500   3.034   0.914
17069SOL    HW263267   5.589   2.976   1.038
17070SOL     OW63268   6.296   1.914   0.464
17070SOL    HW163269   6.354   1.846   0.420
17070SOL    HW263270   6.212   1.926   0.409
17071SOL     OW63271   5.553   2.975   0.510
17071SOL    HW163272   5.632   3.034   0.526
17071SOL    HW263273   5.555   2.941   0.416
17072SOL     OW63274   7.111   2.136   1.554
17072SOL    HW163275   7.064   2.224   1.556
17072SOL    HW263276   7.171   2.129   1.634
17073SOL     OW63277   6.930   1.899   0.186
17073SOL    HW163278   7.007   1.844   0.154
17073SOL    HW263279   6.845   1.848   0.174
17074SOL     OW63280   7.137   1.855   1.590
17074SOL    HW163281   7.139   1.809   1.501
17074SOL    HW263282   7.099   1.947   1.579
17075SOL     OW63283   6.965   2.456   1.132
17075SOL    HW163284   6.922   2.500   1.053
17075SOL    HW263285   6.966   2.520   1.209
17076SOL     OW63286   7.115   1.912   0.494
17076SOL    HW163287   7.051   1.886   0.421
17076SOL    HW263288   7.127   2.011   0.495
17077SOL     OW63289   6.133   3.245   1.754
17077SOL    HW163290   6.090   3.313   1.694
17077SOL    HW263291   6.221   3.281   1.786
17078SOL     OW63292   5.940   2.934   1.604
17078SOL    HW163293   5.999   2.907   1.528
17078SOL    HW263294   5.925   3.033   1.602
17079SOL     OW63295   5.656   3.249   1.136
17079SOL    HW163296   5.635   3.186   1.061
17079SOL    HW263297   5.577   3.254   1.198
17080SOL     OW63298   7.308   2.465   1.733
17080SOL    HW163299   7.310   2.541   1.668
17080SOL    HW263300   7.401   2.440   1.758
17081SOL     OW63301   6.978   2.183   1.155
17081SOL    HW163302   6.970   2.282   1.144
17081SOL    HW263303   6.930   2.154   1.238
17082SOL     OW63304   7.077   2.326   1.801
17082SOL    HW163305   7.158   2.377   1.774
17082SOL    HW263306   7.100   2.260   1.872
17083SOL     OW63307   7.304   2.663   1.538
17083SOL    HW163308   7.250   2.747   1.537
17083SOL    HW263309   7.391   2.678   1.491
17084SOL     OW63310   7.067   2.136   0.244
17084SOL    HW163311   7.084   2.151   0.341
17084SOL    HW263312   7.007   2.057   0.232
17085SOL     OW63313   6.265   3.352   1.425
17085SOL    HW163314   6.201   3.427   1.407
17085SOL    HW263315   6.234   3.270   1.377
17086SOL     OW63316   5.669   2.139   1.740
17086SOL    HW163317   5.679   2.145   1.641
17086SOL    HW263318   5.576   2.110   1.763
17087SOL     OW63319   5.592   3.554   1.631
17087SOL    HW163320   5.677   3.570   1.680
17087SOL    HW263321   5.515   3.564   1.694
17088SOL     OW63322   6.936   3.453   1.503
17088SOL    HW163323   6.869   3.512   1.548
17088SOL    HW263324   6.994   3.507   1.443
17089SOL     OW63325   5.872   2.487   0.234
17089SOL    HW163326   5.894   2.496   0.137
17089SOL    HW263327   5.943   2.531   0.288
17090SOL     OW63328   7.321   2.096   1.375
17090SOL    HW163329   7.242   2.118   1.433
17090SOL    HW263330   7.296   2.111   1.279
17091SOL     OW63331   6.022   3.676   0.753
17091SOL    HW163332   5.979   3.691   0.664
17091SOL    HW263333   5.986   3.591   0.793
17092SOL     OW63334   5.894   3.164   1.250
17092SOL    HW163335   5.890   3.179   1.349
17092SOL    HW263336   5.812   3.202   1.208
17093SOL     OW63337   6.698   3.431   1.835
17093SOL    HW163338   6.678   3.337   1.807
17093SOL    HW263339   6.714   3.487   1.754
17094SOL     OW63340   6.118   3.043   0.560
17094SOL    HW163341   6.150   2.993   0.479
17094SOL    HW263342   6.181   3.028   0.636
17095SOL     OW63343   5.914   2.741   0.805
17095SOL    HW163344   5.897   2.835   0.834
17095SOL    HW263345   6.002   2.710   0.840
17096SOL     OW63346   5.820   2.223   0.287
17096SOL    HW163347   5.852   2.162   0.214
17096SOL    HW263348   5.842   2.317   0.264
17097SOL     OW63349   5.621   2.371   0.843
17097SOL    HW163350   5.562   2.437   0.889
17097SOL    HW263351   5.714   2.379   0.876
17098SOL     OW63352   6.067   3.002   0.161
17098SOL    HW163353   6.122   2.969   0.238
17098SOL    HW263354   6.020   3.086   0.188
17099SOL     OW63355   6.734   2.541   9.948
17099SOL    HW163356   6.792   2.621   9.961
17099SOL    HW263357   6.791   2.459   9.943
17100SOL     OW63358   6.947   2.356   1.505
17100SOL    HW163359   6.892   2.391   1.581
17100SOL    HW263360   6.894   2.289   1.453
17101SOL     OW63361   5.899   2.903   1.175
17101SOL    HW163362   5.967   2.850   1.226
17101SOL    HW263363   5.898   2.997   1.208
17102SOL     OW63364   7.181   2.838   0.091
17102SOL    HW163365   7.258   2.895   0.120
17102SOL    HW263366   7.195   2.807   9.997
17103SOL     OW63367   6.140   2.657   1.176
17103SOL    HW163368   6.215   2.636   1.239
17103SOL    HW263369   6.077   2.579   1.173
17104SOL     OW63370   6.345   2.851   1.501
17104SOL    HW163371   6.407   2.907   1.446
17104SOL    HW263372   6.320   2.900   1.584
17105SOL     OW63373   6.717   2.903   1.683
17105SOL    HW163374   6.637   2.845   1.702
17105SOL    HW263375   6.800   2.856   1.711
17106SOL     OW63376   6.737   3.602   1.618
17106SOL    HW163377   6.664   3.624   1.553
17106SOL    HW263378   6.766   3.686   1.664
17107SOL     OW63379   5.852   3.675   1.258
17107SOL    HW163380   5.833   3.615   1.180
17107SOL    HW263381   5.770   3.685   1.314
17108SOL     OW63382   6.529   3.069   0.877
17108SOL    HW163383   6.559   3.156   0.837
17108SOL    HW263384   6.599   3.036   0.941
17109SOL     OW63385   6.193   2.809   0.960
17109SOL    HW163386   6.228   2.738   0.900
17109SOL    HW263387   6.164   2.769   1.047
17110SOL     OW63388   5.626   2.851   1.151
17110SOL    HW163389   5.722   2.859   1.177
17110SOL    HW263390   5.617   2.783   1.078
17111SOL     OW63391   6.246   2.485   1.636
17111SOL    HW163392   6.184   2.500   1.559
17111SOL    HW263393   6.340   2.489   1.604
17112SOL     OW63394   5.598   2.896   0.245
17112SOL    HW163395   5.620   2.800   0.224
17112SOL    HW263396   5.651   2.955   0.184
17113SOL     OW63397   7.323   2.082   0.868
17113SOL    HW163398   7.296   2.101   0.962
17113SOL    HW263399   7.423   2.081   0.862
17114SOL     OW63400   6.329   3.028   1.080
17114SOL    HW163401   6.283   2.946   1.047
17114SOL    HW263402   6.399   3.055   1.014
17115SOL     OW63403   7.098   3.304   1.667
17115SOL    HW163404   7.057   3.221   1.705
17115SOL    HW263405   7.032   3.350   1.608
17116SOL     OW63406   5.758   2.654   1.390
17116SOL    HW163407   5.761   2.570   1.444
17116SOL    HW263408   5.730   2.731   1.447
17117SOL     OW63409   6.181   3.595   1.109
17117SOL    HW163410   6.179   3.534   1.029
17117SOL    HW263411   6.128   3.554   1.183
17118SOL     OW63412   6.285   2.985   0.768
17118SOL    HW163413   6.370   3.023   0.804
17118SOL    HW263414   6.240   2.930   0.839
17119SOL     OW63415   5.664   2.689   0.923
17119SOL    HW163416   5.755   2.692   0.883
17119SOL    HW263417   5.595   2.711   0.853
17120SOL     OW63418   5.556   2.776   1.813
17120SOL    HW163419   5.457   2.781   1.803
17120SOL    HW263420   5.579   2.725   1.896
17121SOL     OW63421   6.514   3.618   1.426
17121SOL    HW163422   6.481   3.560   1.501
17121SOL    HW263423   6.441   3.680   1.398
17122SOL     OW63424   6.730   2.997   1.048
17122SOL    HW163425   6.768   3.088   1.065
17122SOL    HW263426   6.731   2.945   1.134
17123SOL     OW63427   6.072   2.234   1.788
17123SOL    HW163428   6.155   2.217   1.736
17123SOL    HW263429   6.065   2.331   1.811
17124SOL     OW63430   6.066   2.629   0.385
17124SOL    HW163431   6.115   2.714   0.372
17124SOL    HW263432   5.989   2.644   0.448
17125SOL     OW63433   7.112   2.798   0.965
17125SOL    HW163434   7.151   2.875   0.914
17125SOL    HW263435   7.087   2.828   1.057
17126SOL     OW63436   6.874   2.105   1.398
17126SOL    HW163437   6.952   2.092   1.459
17126SOL    HW263438   6.834   2.016   1.376
17127SOL     OW63439   6.861   1.966   1.741
17127SOL    HW163440   6.900   1.956   1.833
17127SOL    HW263441   6.795   2.042   1.741
17128SOL     OW63442   5.988   3.437   1.611
17128SOL    HW163443   5.932   3.497   1.668
17128SOL    HW263444   6.023   3.489   1.533
17129SOL     OW63445   7.343   3.304   1.543
17129SOL    HW163446   7.392   3.388   1.570
17129SOL    HW263447   7.255   3.301   1.592
17130SOL     OW63448   5.895   3.433   0.810
17130SOL    HW163449   5.919   3.337   0.795
17130SOL    HW263450   5.823   3.460   0.746
17131SOL     OW63451   6.644   3.447   1.193
17131SOL    HW163452   6.597   3.476   1.277
17131SOL    HW263453   6.577   3.438   1.119
17132SOL     OW63454   5.831   3.606   1.768
17132SOL    HW163455   5.856   3.702   1.760
17132SOL    HW263456   5.833   3.579   1.864
17133SOL     OW63457   5.645   3.120   1.623
17133SOL    HW163458   5.623   3.028   1.591
17133SOL    HW263459   5.574   3.184   1.594
17134SOL     OW63460   5.768   3.492   1.060
17134SOL    HW163461   5.731   3.403   1.091
17134SOL    HW263462   5.816   3.480   0.974
17135SOL     OW63463   7.168   2.282   0.743
17135SOL    HW163464   7.171   2.369   0.793
17135SOL    HW263465   7.223   2.214   0.793
17136SOL     OW63466   6.236   2.874   0.347
17136SOL    HW163467   6.288   2.853   0.264
17136SOL    HW263468   6.293   2.858   0.427
17137SOL     OW63469   6.358   1.983   0.078
17137SOL    HW163470   6.432   1.916   0.092
17137SOL    HW263471   6.374   2.063   0.135
17138SOL     OW63472   6.108   2.335   0.778
17138SOL    HW163473   6.148   2.243   0.779
17138SOL    HW263474   6.134   2.381   0.693
17139SOL     OW63475   6.102   2.902   1.389
17139SOL    HW163476   6.186   2.866   1.428
17139SOL    HW263477   6.119   2.994   1.352
17140SOL     OW63478   7.309   2.969   1.346
17140SOL    HW163479   7.313   3.067   1.324
17140SOL    HW263480   7.368   2.918   1.283
17141SOL     OW63481   5.725   3.091   0.089
17141SOL    HW163482   5.643   3.143   0.063
17141SOL    HW263483   5.790   3.153   0.134
17142SOL     OW63484   6.871   2.956   1.452
17142SOL    HW163485   6.813   2.914   1.522
17142SOL    HW263486   6.851   3.053   1.447
17143SOL     OW63487   6.082   3.575   1.384
17143SOL    HW163488   6.149   3.649   1.389
17143SOL    HW263489   5.997   3.610   1.345
17144SOL     OW63490   5.689   2.407   1.799
17144SOL    HW163491   5.684   2.307   1.791
17144SOL    HW263492   5.743   2.431   1.880
17145SOL     OW63493   7.195   3.417   1.094
17145SOL    HW163494   7.241   3.504   1.110
17145SOL    HW263495   7.226   3.350   1.162
17146SOL     OW63496   5.511   2.757   0.686
17146SOL    HW163497   5.539   2.834   0.629
17146SOL    HW263498   5.411   2.759   0.697
17147SOL     OW63499   6.033   2.526   1.455
17147SOL    HW163500   5.951   2.490   1.500
17147SOL    HW263501   6.018   2.622   1.429
17148SOL     OW63502   7.205   3.033   0.829
17148SOL    HW163503   7.164   3.119   0.860
17148SOL    HW263504   7.222   3.038   0.730
17149SOL     OW63505   6.168   3.146   1.271
17149SOL    HW163506   6.073   3.162   1.243
17149SOL    HW263507   6.220   3.113   1.192
17150SOL     OW63508   5.692   2.534   1.155
17150SOL    HW163509   5.708   2.595   1.233
17150SOL    HW263510   5.687   2.588   1.071
17151SOL     OW63511   5.883   3.200   1.521
17151SOL    HW163512   5.919   3.286   1.556
17151SOL    HW263513   5.792   3.184   1.560
17152SOL     OW63514   7.216   3.542   1.762
17152SOL    HW163515   7.168   3.456   1.746
17152SOL    HW263516   7.177   3.614   1.705
17153SOL     OW63517   6.256   2.193   0.475
17153SOL    HW163518   6.156   2.191   0.482
17153SOL    HW263519   6.293   2.102   0.490
17154SOL     OW63520   7.182   1.870   0.761
17154SOL    HW163521   7.150   1.892   0.669
17154SOL    HW263522   7.232   1.949   0.798
17155SOL     OW63523   6.707   2.624   1.392
17155SOL    HW163524   6.807   2.628   1.386
17155SOL    HW263525   6.667   2.669   1.312
17156SOL     OW63526   6.257   2.588   0.808
17156SOL    HW163527   6.214   2.508   0.851
17156SOL    HW263528   6.263   2.573   0.710
17157SOL     OW63529   6.815   3.256   1.081
17157SOL    HW163530   6.755   3.314   1.137
17157SOL    HW263531   6.838   3.303   0.996
17158SOL     OW63532   6.591   3.518   2.453
17158SOL    HW163533   6.669   3.557   2.503
17158SOL    HW263534   6.621   3.484   2.364
17159SOL     OW63535   7.180   3.137   2.334
17159SOL    HW163536   7.214   3.221   2.292
17159SOL    HW263537   7.256   3.076   2.355
17160SOL     OW63538   7.162   2.498   3.243
17160SOL    HW163539   7.097   2.450   3.302
17160SOL    HW263540   7.213   2.564   3.298
17161SOL     OW63541   5.896   2.040   1.850
17161SOL    HW163542   5.810   2.068   1.807
17161SOL    HW263543   5.968   2.105   1.826
17162SOL     OW63544   6.727   1.936   3.174
17162SOL    HW163545   6.650   1.885   3.211
17162SOL    HW263546   6.779   1.877   3.111
17163SOL     OW63547   6.514   2.724   3.550
17163SOL    HW163548   6.504   2.637   3.502
17163SOL    HW263549   6.437   2.737   3.613
17164SOL     OW63550   6.068   3.336   2.200
17164SOL    HW163551   6.023   3.367   2.283
17164SOL    HW263552   6.127   3.257   2.221
17165SOL     OW63553   6.072   1.862   1.988
17165SOL    HW163554   6.164   1.900   1.998
17165SOL    HW263555   6.016   1.924   1.933
17166SOL     OW63556   7.148   2.929   3.391
17166SOL    HW163557   7.052   2.951   3.374
17166SOL    HW263558   7.204   2.963   3.315
17167SOL     OW63559   7.030   2.874   3.104
17167SOL    HW163560   6.965   2.919   3.166
17167SOL    HW263561   7.118   2.920   3.110
17168SOL     OW63562   6.508   3.226   3.363
17168SOL    HW163563   6.426   3.280   3.342
17168SOL    HW263564   6.504   3.139   3.314
17169SOL     OW63565   6.266   2.454   2.411
17169SOL    HW163566   6.290   2.531   2.353
17169SOL    HW263567   6.231   2.379   2.354
17170SOL     OW63568   6.811   2.385   3.606
17170SOL    HW163569   6.904   2.363   3.636
17170SOL    HW263570   6.749   2.312   3.635
17171SOL     OW63571   5.960   3.232   1.966
17171SOL    HW163572   6.021   3.241   1.888
17171SOL    HW263573   5.997   3.281   2.044
17172SOL     OW63574   6.103   2.109   2.878
17172SOL    HW163575   6.176   2.177   2.887
17172SOL    HW263576   6.139   2.029   2.829
17173SOL     OW63577   5.818   2.643   2.227
17173SOL    HW163578   5.766   2.588   2.292
17173SOL    HW263579   5.812   2.740   2.254
17174SOL     OW63580   6.320   3.564   2.407
17174SOL    HW163581   6.418   3.550   2.416
17174SOL    HW263582   6.302   3.644   2.350
17175SOL     OW63583   7.299   3.353   2.215
17175SOL    HW163584   7.395   3.333   2.195
17175SOL    HW263585   7.282   3.451   2.203
17176SOL     OW63586   7.219   2.157   2.964
17176SOL    HW163587   7.260   2.246   2.988
17176SOL    HW263588   7.120   2.167   2.958
17177SOL     OW63589   6.606   2.238   2.218
17177SOL    HW163590   6.661   2.322   2.219
17177SOL    HW263591   6.619   2.189   2.304
17178SOL     OW63592   6.061   2.514   1.833
17178SOL    HW163593   6.033   2.609   1.833
17178SOL    HW263594   6.136   2.501   1.768
17179SOL     OW63595   6.134   3.487   2.584
17179SOL    HW163596   6.196   3.522   2.513
17179SOL    HW263597   6.078   3.414   2.545
17180SOL     OW63598   6.506   2.481   3.418
17180SOL    HW163599   6.544   2.399   3.461
17180SOL    HW263600   6.567   2.512   3.346
17181SOL     OW63601   5.926   3.070   2.300
17181SOL    HW163602   6.025   3.077   2.318
17181SOL    HW263603   5.912   3.032   2.208
17182SOL     OW63604   6.727   2.092   2.022
17182SOL    HW163605   6.795   2.031   2.062
17182SOL    HW263606   6.681   2.143   2.094
17183SOL     OW63607   5.941   2.365   3.068
17183SOL    HW163608   5.928   2.267   3.080
17183SOL    HW263609   5.852   2.411   3.071
17184SOL     OW63610   6.933   2.621   3.148
17184SOL    HW163611   6.958   2.716   3.131
17184SOL    HW263612   7.013   2.571   3.181
17185SOL     OW63613   5.924   2.132   2.300
17185SOL    HW163614   5.873   2.172   2.376
17185SOL    HW263615   5.877   2.152   2.214
17186SOL     OW63616   7.313   2.399   3.040
17186SOL    HW163617   7.401   2.446   3.042
17186SOL    HW263618   7.256   2.434   3.114
17187SOL     OW63619   7.399   3.511   3.035
17187SOL    HW163620   7.412   3.575   3.110
17187SOL    HW263621   7.477   3.516   2.973
17188SOL     OW63622   6.460   2.291   2.519
17188SOL    HW163623   6.529   2.334   2.578
17188SOL    HW263624   6.397   2.360   2.486
17189SOL     OW63625   6.798   2.823   2.004
17189SOL    HW163626   6.808   2.789   2.097
17189SOL    HW263627   6.762   2.749   1.946
17190SOL     OW63628   6.621   2.206   3.697
17190SOL    HW163629   6.674   2.164   3.771
17190SOL    HW263630   6.527   2.219   3.727
17191SOL     OW63631   7.297   2.530   2.233
17191SOL    HW163632   7.249   2.444   2.247
17191SOL    HW263633   7.362   2.544   2.308
17192SOL     OW63634   6.546   3.618   1.992
17192SOL    HW163635   6.579   3.558   1.920
17192SOL    HW263636   6.576   3.583   2.081
17193SOL     OW63637   6.294   1.891   3.586
17193SOL    HW163638   6.321   1.801   3.554
17193SOL    HW263639   6.308   1.897   3.685
17194SOL     OW63640   7.236   2.490   2.794
17194SOL    HW163641   7.192   2.579   2.809
17194SOL    HW263642   7.260   2.450   2.883
17195SOL     OW63643   6.640   3.169   3.606
17195SOL    HW163644   6.689   3.084   3.586
17195SOL    HW263645   6.590   3.199   3.525
17196SOL     OW63646   6.218   3.016   3.596
17196SOL    HW163647   6.185   3.107   3.619
17196SOL    HW263648   6.266   2.976   3.674
17197SOL     OW63649   6.928   1.821   2.734
17197SOL    HW163650   6.877   1.906   2.744
17197SOL    HW263651   7.008   1.838   2.677
17198SOL     OW63652   7.280   2.072   3.624
17198SOL    HW163653   7.242   2.100   3.712
17198SOL    HW263654   7.269   1.974   3.612
17199SOL     OW63655   5.630   2.556   2.405
17199SOL    HW163656   5.643   2.506   2.490
17199SOL    HW263657   5.602   2.650   2.425
17200SOL     OW63658   5.889   2.062   2.679
17200SOL    HW163659   5.953   2.094   2.749
17200SOL    HW263660   5.918   1.972   2.645
17201SOL     OW63661   5.922   2.081   3.084
17201SOL    HW163662   5.898   1.984   3.092
17201SOL    HW263663   5.988   2.093   3.010
17202SOL     OW63664   6.596   2.641   2.701
17202SOL    HW163665   6.505   2.652   2.742
17202SOL    HW263666   6.615   2.544   2.688
17203SOL     OW63667   5.737   3.408   2.172
17203SOL    HW163668   5.769   3.317   2.144
17203SOL    HW263669   5.787   3.478   2.122
17204SOL     OW63670   5.734   3.468   2.450
17204SOL    HW163671   5.638   3.469   2.477
17204SOL    HW263672   5.741   3.466   2.351
17205SOL     OW63673   7.358   3.260   3.127
17205SOL    HW163674   7.355   3.268   3.227
17205SOL    HW263675   7.355   3.351   3.086
17206SOL     OW63676   6.022   2.786   1.828
17206SOL    HW163677   5.997   2.832   1.743
17206SOL    HW263678   6.005   2.846   1.905
17207SOL     OW63679   5.601   2.669   2.056
17207SOL    HW163680   5.686   2.648   2.104
17207SOL    HW263681   5.525   2.620   2.100
17208SOL     OW63682   7.119   2.738   2.254
17208SOL    HW163683   7.182   2.663   2.237
17208SOL    HW263684   7.136   2.812   2.189
17209SOL     OW63685   6.423   3.585   2.906
17209SOL    HW163686   6.440   3.529   2.825
17209SOL    HW263687   6.324   3.596   2.918
17210SOL     OW63688   6.294   2.741   1.904
17210SOL    HW163689   6.315   2.650   1.941
17210SOL    HW263690   6.200   2.742   1.870
17211SOL     OW63691   6.913   2.275   2.292
17211SOL    HW163692   6.870   2.346   2.236
17211SOL    HW263693   7.012   2.287   2.290
17212SOL     OW63694   5.769   2.417   3.399
17212SOL    HW163695   5.761   2.327   3.356
17212SOL    HW263696   5.778   2.406   3.498
17213SOL     OW63697   5.747   2.158   3.291
17213SOL    HW163698   5.816   2.133   3.222
17213SOL    HW263699   5.656   2.136   3.256
17214SOL     OW63700   7.186   2.292   2.325
17214SOL    HW163701   7.266   2.233   2.310
17214SOL    HW263702   7.172   2.304   2.424
17215SOL     OW63703   6.424   3.453   2.671
17215SOL    HW163704   6.488   3.465   2.595
17215SOL    HW263705   6.330   3.451   2.635
17216SOL     OW63706   6.365   2.228   2.100
17216SOL    HW163707   6.295   2.219   2.171
17216SOL    HW263708   6.455   2.231   2.142
17217SOL     OW63709   6.512   3.133   1.984
17217SOL    HW163710   6.565   3.113   2.067
17217SOL    HW263711   6.573   3.136   1.905
17218SOL     OW63712   6.702   2.764   2.477
17218SOL    HW163713   6.665   2.718   2.558
17218SOL    HW263714   6.627   2.806   2.426
17219SOL     OW63715   6.345   3.497   3.519
17219SOL    HW163716   6.311   3.432   3.451
17219SOL    HW263717   6.358   3.449   3.606
17220SOL     OW63718   6.865   2.693   2.732
17220SOL    HW163719   6.765   2.681   2.735
17220SOL    HW263720   6.889   2.755   2.657
17221SOL     OW63721   6.473   2.855   2.354
17221SOL    HW163722   6.431   2.781   2.301
17221SOL    HW263723   6.408   2.887   2.423
17222SOL     OW63724   6.791   3.245   3.300
17222SOL    HW163725   6.843   3.329   3.317
17222SOL    HW263726   6.693   3.264   3.310
17223SOL     OW63727   5.600   2.203   2.275
17223SOL    HW163728   5.659   2.206   2.195
17223SOL    HW263729   5.655   2.216   2.358
17224SOL     OW63730   6.279   2.603   3.278
17224SOL    HW163731   6.284   2.697   3.311
17224SOL    HW263732   6.357   2.551   3.312
17225SOL     OW63733   5.670   3.699   3.271
17225SOL    HW163734   5.646   3.795   3.258
17225SOL    HW263735   5.638   3.670   3.361
17226SOL     OW63736   6.328   2.655   2.231
17226SOL    HW163737   6.236   2.687   2.210
17226SOL    HW263738   6.363   2.602   2.154
17227SOL     OW63739   5.884   2.404   2.793
17227SOL    HW163740   5.957   2.394   2.725
17227SOL    HW263741   5.921   2.384   2.884
17228SOL     OW63742   5.862   3.623   2.051
17228SOL    HW163743   5.951   3.649   2.014
17228SOL    HW263744   5.854   3.655   2.145
17229SOL     OW63745   5.543   3.121   2.885
17229SOL    HW163746   5.489   3.094   2.806
17229SOL    HW263747   5.560   3.042   2.944
17230SOL     OW63748   6.251   1.909   2.294
17230SOL    HW163749   6.277   1.899   2.198
17230SOL    HW263750   6.231   2.005   2.313
17231SOL     OW63751   5.638   3.060   2.324
17231SOL    HW163752   5.736   3.073   2.336
17231SOL    HW263753   5.618   3.027   2.232
17232SOL     OW63754   7.128   2.149   3.404
17232SOL    HW163755   7.078   2.236   3.405
17232SOL    HW263756   7.181   2.140   3.489
17233SOL     OW63757   6.824   2.076   2.766
17233SOL    HW163758   6.839   2.133   2.685
17233SOL    HW263759   6.869   2.117   2.845
17234SOL     OW63760   6.965   1.905   1.998
17234SOL    HW163761   7.059   1.873   2.008
17234SOL    HW263762   6.902   1.830   2.017
17235SOL     OW63763   7.141   1.870   3.423
17235SOL    HW163764   7.126   1.825   3.335
17235SOL    HW263765   7.124   1.968   3.413
17236SOL     OW63766   6.235   2.139   2.569
17236SOL    HW163767   6.227   2.055   2.623
17236SOL    HW263768   6.328   2.175   2.578
17237SOL     OW63769   6.843   2.477   2.936
17237SOL    HW163770   6.858   2.531   2.853
17237SOL    HW263771   6.876   2.528   3.016
17238SOL     OW63772   7.107   1.934   2.297
17238SOL    HW163773   7.137   1.881   2.217
17238SOL    HW263774   7.009   1.952   2.289
17239SOL     OW63775   6.115   3.265   3.663
17239SOL    HW163776   6.069   3.325   3.598
17239SOL    HW263777   6.201   3.308   3.693
17240SOL     OW63778   5.993   2.909   3.487
17240SOL    HW163779   6.007   2.897   3.389
17240SOL    HW263780   6.073   2.953   3.527
17241SOL     OW63781   5.696   3.335   2.961
17241SOL    HW163782   5.647   3.258   2.920
17241SOL    HW263783   5.630   3.399   3.000
17242SOL     OW63784   6.659   2.381   2.678
17242SOL    HW163785   6.743   2.341   2.640
17242SOL    HW263786   6.642   2.342   2.768
17243SOL     OW63787   7.291   2.473   3.574
17243SOL    HW163788   7.284   2.550   3.509
17243SOL    HW263789   7.387   2.457   3.596
17244SOL     OW63790   6.947   2.220   2.969
17244SOL    HW163791   6.919   2.315   2.953
17244SOL    HW263792   6.926   2.194   3.063
17245SOL     OW63793   7.070   2.332   3.669
17245SOL    HW163794   7.149   2.383   3.635
17245SOL    HW263795   7.100   2.268   3.740
17246SOL     OW63796   6.847   2.709   2.252
17246SOL    HW163797   6.802   2.735   2.337
17246SOL    HW263798   6.945   2.726   2.259
17247SOL     OW63799   7.155   2.686   2.521
17247SOL    HW163800   7.133   2.712   2.427
17247SOL    HW263801   7.091   2.616   2.552
17248SOL     OW63802   7.293   2.689   3.390
17248SOL    HW163803   7.230   2.767   3.383
17248SOL    HW263804   7.387   2.722   3.396
17249SOL     OW63805   7.133   2.132   1.993
17249SOL    HW163806   7.165   2.155   2.084
17249SOL    HW263807   7.057   2.067   2.000
17250SOL     OW63808   6.255   3.350   3.303
17250SOL    HW163809   6.202   3.433   3.287
17250SOL    HW263810   6.216   3.274   3.251
17251SOL     OW63811   5.715   2.025   3.538
17251SOL    HW163812   5.738   2.069   3.451
17251SOL    HW263813   5.624   2.055   3.567
17252SOL     OW63814   5.605   3.610   3.529
17252SOL    HW163815   5.693   3.616   3.577
17252SOL    HW263816   5.573   3.516   3.529
17253SOL     OW63817   5.757   2.216   2.499
17253SOL    HW163818   5.721   2.297   2.546
17253SOL    HW263819   5.804   2.157   2.565
17254SOL     OW63820   6.928   3.470   3.397
17254SOL    HW163821   6.842   3.510   3.428
17254SOL    HW263822   6.996   3.542   3.383
17255SOL     OW63823   5.863   2.446   2.017
17255SOL    HW163824   5.941   2.466   1.958
17255SOL    HW263825   5.861   2.512   2.092
17256SOL     OW63826   7.327   2.093   3.217
17256SOL    HW163827   7.254   2.120   3.280
17256SOL    HW263828   7.294   2.100   3.123
17257SOL     OW63829   5.887   3.617   2.629
17257SOL    HW163830   5.823   3.578   2.563
17257SOL    HW263831   5.980   3.587   2.609
17258SOL     OW63832   5.868   3.188   3.118
17258SOL    HW163833   5.844   3.209   3.213
17258SOL    HW263834   5.811   3.242   3.057
17259SOL     OW63835   6.703   3.428   3.705
17259SOL    HW163836   6.684   3.334   3.678
17259SOL    HW263837   6.705   3.486   3.623
17260SOL     OW63838   6.209   3.110   2.277
17260SOL    HW163839   6.244   3.057   2.199
17260SOL    HW263840   6.286   3.139   2.334
17261SOL     OW63841   5.790   2.186   2.067
17261SOL    HW163842   5.832   2.129   1.996
17261SOL    HW263843   5.812   2.282   2.050
17262SOL     OW63844   5.659   2.425   2.642
17262SOL    HW163845   5.577   2.450   2.694
17262SOL    HW263846   5.738   2.422   2.704
17263SOL     OW63847   6.020   2.970   2.038
17263SOL    HW163848   6.120   2.980   2.040
17263SOL    HW263849   5.979   3.055   2.003
17264SOL     OW63850   6.667   2.552   1.907
17264SOL    HW163851   6.619   2.618   1.850
17264SOL    HW263852   6.725   2.494   1.850
17265SOL     OW63853   6.405   2.502   2.014
17265SOL    HW163854   6.499   2.510   1.982
17265SOL    HW263855   6.381   2.406   2.028
17266SOL     OW63856   6.841   2.012   2.293
17266SOL    HW163857   6.759   2.005   2.350
17266SOL    HW263858   6.870   2.108   2.289
17267SOL     OW63859   6.960   2.369   3.370
17267SOL    HW163860   6.903   2.396   3.447
17267SOL    HW263861   6.910   2.307   3.310
17268SOL     OW63862   5.629   1.934   2.041
17268SOL    HW163863   5.702   1.869   2.062
17268SOL    HW263864   5.662   2.027   2.053
17269SOL     OW63865   5.851   2.912   3.081
17269SOL    HW163866   5.933   2.876   3.127
17269SOL    HW263867   5.852   3.012   3.086
17270SOL     OW63868   7.188   2.902   2.047
17270SOL    HW163869   7.284   2.924   2.064
17270SOL    HW263870   7.175   2.886   1.949
17271SOL     OW63871   6.195   2.477   3.045
17271SOL    HW163872   6.220   2.531   3.125
17271SOL    HW263873   6.102   2.443   3.056
17272SOL     OW63874   6.322   2.860   3.391
17272SOL    HW163875   6.410   2.827   3.426
17272SOL    HW263876   6.281   2.922   3.457
17273SOL     OW63877   6.722   2.907   3.519
17273SOL    HW163878   6.642   2.847   3.527
17273SOL    HW263879   6.804   2.858   3.549
17274SOL     OW63880   6.613   2.077   2.453
17274SOL    HW163881   6.552   2.153   2.474
17274SOL    HW263882   6.608   2.008   2.526
17275SOL     OW63883   6.707   3.597   3.492
17275SOL    HW163884   6.628   3.617   3.434
17275SOL    HW263885   6.755   3.682   3.514
17276SOL     OW63886   6.195   1.911   2.711
17276SOL    HW163887   6.118   1.860   2.671
17276SOL    HW263888   6.277   1.853   2.712
17277SOL     OW63889   5.899   3.685   3.129
17277SOL    HW163890   5.886   3.636   3.043
17277SOL    HW263891   5.814   3.682   3.182
17278SOL     OW63892   5.580   2.893   3.035
17278SOL    HW163893   5.679   2.883   3.050
17278SOL    HW263894   5.549   2.823   2.972
17279SOL     OW63895   5.806   1.877   2.322
17279SOL    HW163896   5.857   1.963   2.330
17279SOL    HW263897   5.712   1.892   2.353
17280SOL     OW63898   6.264   2.451   3.567
17280SOL    HW163899   6.185   2.459   3.506
17280SOL    HW263900   6.349   2.458   3.514
17281SOL     OW63901   5.616   2.948   2.078
17281SOL    HW163902   5.617   2.850   2.057
17281SOL    HW263903   5.657   2.999   2.003
17282SOL     OW63904   7.288   2.090   2.702
17282SOL    HW163905   7.269   2.102   2.800
17282SOL    HW263906   7.387   2.081   2.689
17283SOL     OW63907   6.763   2.467   2.159
17283SOL    HW163908   6.792   2.553   2.202
17283SOL    HW263909   6.728   2.486   2.067
17284SOL     OW63910   7.097   3.299   3.529
17284SOL    HW163911   7.059   3.214   3.565
17284SOL    HW263912   7.028   3.347   3.476
17285SOL     OW63913   5.698   2.651   3.275
17285SOL    HW163914   5.727   2.573   3.330
17285SOL    HW263915   5.674   2.728   3.334
17286SOL     OW63916   6.370   3.336   1.858
17286SOL    HW163917   6.320   3.394   1.922
17286SOL    HW263918   6.424   3.269   1.908
17287SOL     OW63919   6.145   3.591   2.841
17287SOL    HW163920   6.148   3.546   2.752
17287SOL    HW263921   6.055   3.578   2.883
17288SOL     OW63922   6.476   3.662   3.347
17288SOL    HW163923   6.433   3.600   3.412
17288SOL    HW263924   6.408   3.728   3.314
17289SOL     OW63925   6.064   2.245   3.636
17289SOL    HW163926   6.119   2.205   3.562
17289SOL    HW263927   6.110   2.327   3.670
17290SOL     OW63928   6.076   2.733   2.173
17290SOL    HW163929   6.051   2.818   2.127
17290SOL    HW263930   5.993   2.682   2.197
17291SOL     OW63931   7.096   2.713   2.878
17291SOL    HW163932   7.012   2.710   2.824
17291SOL    HW263933   7.083   2.774   2.957
17292SOL     OW63934   6.889   2.145   3.226
17292SOL    HW163935   6.963   2.111   3.285
17292SOL    HW263936   6.822   2.072   3.211
17293SOL     OW63937   5.546   1.951   2.373
17293SOL    HW163938   5.451   1.922   2.359
17293SOL    HW263939   5.559   2.043   2.336
17294SOL     OW63940   6.799   1.991   3.608
17294SOL    HW163941   6.851   1.989   3.693
17294SOL    HW263942   6.727   2.061   3.615
17295SOL     OW63943   5.979   3.443   3.499
17295SOL    HW163944   5.931   3.509   3.556
17295SOL    HW263945   6.024   3.492   3.423
17296SOL     OW63946   7.341   3.303   3.401
17296SOL    HW163947   7.381   3.392   3.423
17296SOL    HW263948   7.250   3.295   3.442
17297SOL     OW63949   6.615   2.313   2.940
17297SOL    HW163950   6.693   2.374   2.954
17297SOL    HW263951   6.631   2.228   2.991
17298SOL     OW63952   5.957   3.314   2.460
17298SOL    HW163953   5.934   3.221   2.430
17298SOL    HW263954   5.873   3.367   2.470
17299SOL     OW63955   6.594   3.541   3.116
17299SOL    HW163956   6.541   3.564   3.197
17299SOL    HW263957   6.535   3.549   3.035
17300SOL     OW63958   5.846   3.628   3.660
17300SOL    HW163959   5.877   3.723   3.647
17300SOL    HW263960   5.836   3.610   3.757
17301SOL     OW63961   5.753   3.022   3.538
17301SOL    HW163962   5.843   2.982   3.522
17301SOL    HW263963   5.682   2.961   3.503
17302SOL     OW63964   5.869   3.548   2.896
17302SOL    HW163965   5.815   3.465   2.911
17302SOL    HW263966   5.860   3.577   2.801
17303SOL     OW63967   6.588   1.945   2.697
17303SOL    HW163968   6.668   1.991   2.736
17303SOL    HW263969   6.546   1.886   2.765
17304SOL     OW63970   6.628   3.057   2.222
17304SOL    HW163971   6.717   3.073   2.263
17304SOL    HW263972   6.583   2.981   2.269
17305SOL     OW63973   7.154   2.309   2.602
17305SOL    HW163974   7.179   2.383   2.665
17305SOL    HW263975   7.201   2.225   2.630
17306SOL     OW63976   6.293   2.982   2.043
17306SOL    HW163977   6.373   3.039   2.024
17306SOL    HW263978   6.310   2.889   2.012
17307SOL     OW63979   6.326   1.960   2.015
17307SOL    HW163980   6.406   1.900   2.026
17307SOL    HW263981   6.353   2.054   2.036
17308SOL     OW63982   6.086   2.369   2.612
17308SOL    HW163983   6.124   2.277   2.614
17308SOL    HW263984   6.141   2.427   2.552
17309SOL     OW63985   6.100   2.911   3.230
17309SOL    HW163986   6.185   2.880   3.272
17309SOL    HW263987   6.113   3.003   3.191
17310SOL     OW63988   7.273   2.998   3.148
17310SOL    HW163989   7.294   3.095   3.137
17310SOL    HW263990   7.332   2.944   3.088
17311SOL     OW63991   5.733   3.096   1.886
17311SOL    HW163992   5.701   3.109   1.792
17311SOL    HW263993   5.810   3.158   1.903
17312SOL     OW63994   6.203   3.480   2.010
17312SOL    HW163995   6.163   3.569   1.990
17312SOL    HW263996   6.158   3.440   2.090
17313SOL     OW63997   6.888   2.993   3.312
17313SOL    HW163998   6.826   2.953   3.379
17313SOL    HW263999   6.862   3.088   3.295
17314SOL     OW64000   6.103   3.584   3.286
17314SOL    HW164001   6.165   3.662   3.294
17314SOL    HW264002   6.026   3.609   3.227
17315SOL     OW64003   5.820   2.379   3.662
17315SOL    HW164004   5.907   2.334   3.647
17315SOL    HW264005   5.826   2.438   3.743
17316SOL     OW64006   5.546   2.810   2.433
17316SOL    HW164007   5.573   2.903   2.406
17316SOL    HW264008   5.455   2.813   2.474
17317SOL     OW64009   6.050   2.474   3.402
17317SOL    HW164010   5.952   2.464   3.386
17317SOL    HW264011   6.090   2.532   3.331
17318SOL     OW64012   6.323   2.280   2.908
17318SOL    HW164013   6.422   2.292   2.911
17318SOL    HW264014   6.278   2.359   2.952
17319SOL     OW64015   6.138   3.166   3.130
17319SOL    HW164016   6.039   3.180   3.125
17319SOL    HW264017   6.178   3.181   3.040
17320SOL     OW64018   5.715   2.528   3.037
17320SOL    HW164019   5.710   2.584   3.119
17320SOL    HW264020   5.762   2.578   2.965
17321SOL     OW64021   5.816   3.246   3.378
17321SOL    HW164022   5.872   3.313   3.426
17321SOL    HW264023   5.789   3.174   3.442
17322SOL     OW64024   7.189   3.543   3.632
17322SOL    HW164025   7.160   3.448   3.617
17322SOL    HW264026   7.157   3.599   3.556
17323SOL     OW64027   6.901   3.098   2.297
17323SOL    HW164028   6.994   3.108   2.331
17323SOL    HW264029   6.902   3.083   2.198
17324SOL     OW64030   6.187   2.194   2.311
17324SOL    HW164031   6.091   2.174   2.296
17324SOL    HW264032   6.210   2.178   2.407
17325SOL     OW64033   7.134   1.902   2.569
17325SOL    HW164034   7.126   1.925   2.472
17325SOL    HW264035   7.191   1.970   2.614
17326SOL     OW64036   6.668   2.569   3.222
17326SOL    HW164037   6.766   2.588   3.219
17326SOL    HW264038   6.627   2.589   3.134
17327SOL     OW64039   6.885   2.266   2.570
17327SOL    HW164040   6.874   2.261   2.471
17327SOL    HW264041   6.981   2.283   2.592
17328SOL     OW64042   6.620   3.314   4.473
17328SOL    HW164043   6.716   3.341   4.471
17328SOL    HW264044   6.581   3.323   4.381
17329SOL     OW64045   7.157   3.122   4.247
17329SOL    HW164046   7.163   3.189   4.321
17329SOL    HW264047   7.248   3.085   4.228
17330SOL     OW64048   7.169   2.498   5.065
17330SOL    HW164049   7.112   2.434   5.116
17330SOL    HW264050   7.221   2.556   5.128
17331SOL     OW64051   5.900   2.062   3.736
17331SOL    HW164052   5.830   2.046   3.667
17331SOL    HW264053   5.967   2.127   3.702
17332SOL     OW64054   6.890   3.388   4.497
17332SOL    HW164055   6.900   3.484   4.523
17332SOL    HW264056   6.979   3.352   4.469
17333SOL     OW64057   6.749   1.888   4.980
17333SOL    HW164058   6.667   1.846   5.018
17333SOL    HW264059   6.792   1.825   4.916
17334SOL     OW64060   6.509   2.723   5.389
17334SOL    HW164061   6.494   2.651   5.321
17334SOL    HW264062   6.422   2.744   5.435
17335SOL     OW64063   6.097   3.339   4.115
17335SOL    HW164064   6.049   3.364   4.199
17335SOL    HW264065   6.173   3.277   4.137
17336SOL     OW64066   6.077   1.877   3.847
17336SOL    HW164067   6.170   1.913   3.859
17336SOL    HW264068   6.020   1.948   3.806
17337SOL     OW64069   7.138   2.906   5.226
17337SOL    HW164070   7.041   2.923   5.204
17337SOL    HW264071   7.194   2.930   5.147
17338SOL     OW64072   6.975   2.897   4.901
17338SOL    HW164073   6.931   2.902   4.991
17338SOL    HW264074   7.025   2.981   4.884
17339SOL     OW64075   6.548   3.191   5.146
17339SOL    HW164076   6.465   3.247   5.139
17339SOL    HW264077   6.532   3.103   5.102
17340SOL     OW64078   6.023   3.059   4.395
17340SOL    HW164079   5.972   3.007   4.463
17340SOL    HW264080   6.120   3.036   4.402
17341SOL     OW64081   6.834   2.400   5.401
17341SOL    HW164082   6.922   2.375   5.441
17341SOL    HW264083   6.763   2.340   5.438
17342SOL     OW64084   5.962   3.241   3.891
17342SOL    HW164085   6.015   3.253   3.806
17342SOL    HW264086   6.015   3.277   3.968
17343SOL     OW64087   5.865   2.614   4.201
17343SOL    HW164088   5.898   2.636   4.292
17343SOL    HW264089   5.769   2.585   4.207
17344SOL     OW64090   6.337   3.531   4.332
17344SOL    HW164091   6.402   3.463   4.297
17344SOL    HW264092   6.331   3.606   4.267
17345SOL     OW64093   7.323   3.459   4.101
17345SOL    HW164094   7.413   3.419   4.081
17345SOL    HW264095   7.290   3.509   4.021
17346SOL     OW64096   7.224   2.152   4.803
17346SOL    HW164097   7.252   2.247   4.817
17346SOL    HW264098   7.124   2.147   4.806
17347SOL     OW64099   6.615   2.234   4.082
17347SOL    HW164100   6.664   2.320   4.070
17347SOL    HW264101   6.633   2.198   4.173
17348SOL     OW64102   5.680   2.856   5.283
17348SOL    HW164103   5.778   2.871   5.293
17348SOL    HW264104   5.639   2.836   5.372
17349SOL     OW64105   6.091   2.510   3.770
17349SOL    HW164106   6.058   2.604   3.759
17349SOL    HW264107   6.171   2.496   3.712
17350SOL     OW64108   6.189   3.446   4.535
17350SOL    HW164109   6.247   3.484   4.463
17350SOL    HW264110   6.115   3.394   4.494
17351SOL     OW64111   6.515   2.493   5.228
17351SOL    HW164112   6.543   2.414   5.284
17351SOL    HW264113   6.593   2.522   5.172
17352SOL     OW64114   7.160   3.293   4.479
17352SOL    HW164115   7.165   3.313   4.576
17352SOL    HW264116   7.218   3.357   4.429
17353SOL     OW64117   5.817   3.072   4.204
17353SOL    HW164118   5.898   3.054   4.260
17353SOL    HW264119   5.801   2.994   4.143
17354SOL     OW64120   6.762   2.093   3.894
17354SOL    HW164121   6.829   2.028   3.928
17354SOL    HW264122   6.713   2.134   3.972
17355SOL     OW64123   5.919   2.375   4.937
17355SOL    HW164124   5.911   2.276   4.935
17355SOL    HW264125   5.839   2.416   4.892
17356SOL     OW64126   6.957   2.624   4.950
17356SOL    HW164127   6.971   2.721   4.931
17356SOL    HW264128   7.039   2.585   4.990
17357SOL     OW64129   5.946   2.087   4.154
17357SOL    HW164130   5.911   2.129   4.237
17357SOL    HW264131   5.898   2.124   4.074
17358SOL     OW64132   7.080   3.576   5.010
17358SOL    HW164133   7.002   3.580   4.948
17358SOL    HW264134   7.164   3.572   4.957
17359SOL     OW64135   7.306   2.409   4.850
17359SOL    HW164136   7.399   2.446   4.855
17359SOL    HW264137   7.253   2.441   4.928
17360SOL     OW64138   7.331   3.567   4.870
17360SOL    HW164139   7.366   3.599   4.958
17360SOL    HW264140   7.408   3.553   4.807
17361SOL     OW64141   6.791   2.820   3.842
17361SOL    HW164142   6.818   2.779   3.930
17361SOL    HW264143   6.743   2.751   3.787
17362SOL     OW64144   6.629   2.253   5.505
17362SOL    HW164145   6.687   2.179   5.538
17362SOL    HW264146   6.542   2.251   5.553
17363SOL     OW64147   7.290   2.542   4.066
17363SOL    HW164148   7.240   2.456   4.077
17363SOL    HW264149   7.354   2.552   4.142
17364SOL     OW64150   6.541   3.625   3.858
17364SOL    HW164151   6.575   3.562   3.788
17364SOL    HW264152   6.562   3.588   3.948
17365SOL     OW64153   6.312   1.895   5.385
17365SOL    HW164154   6.339   1.803   5.355
17365SOL    HW264155   6.339   1.908   5.480
17366SOL     OW64156   7.240   2.519   4.608
17366SOL    HW164157   7.212   2.614   4.622
17366SOL    HW264158   7.254   2.475   4.697
17367SOL     OW64159   6.662   3.172   5.414
17367SOL    HW164160   6.700   3.079   5.410
17367SOL    HW264161   6.609   3.190   5.332
17368SOL     OW64162   6.264   2.979   5.388
17368SOL    HW164163   6.223   3.066   5.414
17368SOL    HW264164   6.275   2.922   5.469
17369SOL     OW64165   6.920   1.840   4.558
17369SOL    HW164166   6.868   1.926   4.560
17369SOL    HW264167   7.009   1.857   4.515
17370SOL     OW64168   7.346   2.098   5.513
17370SOL    HW164169   7.285   2.152   5.570
17370SOL    HW264170   7.388   2.026   5.568
17371SOL     OW64171   5.611   2.526   4.269
17371SOL    HW164172   5.620   2.456   4.340
17371SOL    HW264173   5.582   2.612   4.311
17372SOL     OW64174   5.980   2.040   4.507
17372SOL    HW164175   6.077   2.040   4.530
17372SOL    HW264176   5.945   1.946   4.509
17373SOL     OW64177   5.918   2.088   4.965
17373SOL    HW164178   5.884   1.998   4.937
17373SOL    HW264179   6.008   2.078   5.007
17374SOL     OW64180   6.562   2.721   4.605
17374SOL    HW164181   6.608   2.804   4.575
17374SOL    HW264182   6.617   2.641   4.580
17375SOL     OW64183   5.758   3.301   4.075
17375SOL    HW164184   5.771   3.215   4.125
17375SOL    HW264185   5.819   3.304   3.996
17376SOL     OW64186   7.016   3.181   4.919
17376SOL    HW164187   6.974   3.208   4.833
17376SOL    HW264188   6.950   3.192   4.994
17377SOL     OW64189   5.723   3.400   4.332
17377SOL    HW164190   5.636   3.446   4.348
17377SOL    HW264191   5.730   3.375   4.235
17378SOL     OW64192   7.280   3.225   4.974
17378SOL    HW164193   7.302   3.265   5.064
17378SOL    HW264194   7.181   3.211   4.967
17379SOL     OW64195   6.032   2.771   3.728
17379SOL    HW164196   5.999   2.806   3.640
17379SOL    HW264197   6.018   2.840   3.799
17380SOL     OW64198   6.481   2.964   4.995
17380SOL    HW164199   6.531   2.881   4.968
17380SOL    HW264200   6.424   2.995   4.919
17381SOL     OW64201   5.662   2.632   3.934
17381SOL    HW164202   5.741   2.572   3.937
17381SOL    HW264203   5.580   2.582   3.960
17382SOL     OW64204   7.130   2.763   4.109
17382SOL    HW164205   7.189   2.684   4.093
17382SOL    HW264206   7.149   2.833   4.040
17383SOL     OW64207   6.368   3.698   4.699
17383SOL    HW164208   6.405   3.608   4.674
17383SOL    HW264209   6.313   3.689   4.781
17384SOL     OW64210   6.310   2.748   3.725
17384SOL    HW164211   6.338   2.677   3.789
17384SOL    HW264212   6.210   2.755   3.724
17385SOL     OW64213   6.916   2.285   4.136
17385SOL    HW164214   6.871   2.346   4.070
17385SOL    HW264215   7.015   2.299   4.131
17386SOL     OW64216   5.876   2.541   5.161
17386SOL    HW164217   5.890   2.467   5.095
17386SOL    HW264218   5.819   2.508   5.236
17387SOL     OW64219   5.699   2.181   5.107
17387SOL    HW164220   5.778   2.147   5.056
17387SOL    HW264221   5.615   2.140   5.071
17388SOL     OW64222   6.542   2.717   4.883
17388SOL    HW164223   6.547   2.714   4.783
17388SOL    HW264224   6.464   2.663   4.914
17389SOL     OW64225   7.190   2.295   4.151
17389SOL    HW164226   7.280   2.256   4.135
17389SOL    HW264227   7.176   2.307   4.250
17390SOL     OW64228   6.446   3.434   4.650
17390SOL    HW164229   6.509   3.398   4.581
17390SOL    HW264230   6.352   3.421   4.618
17391SOL     OW64231   6.402   2.226   3.914
17391SOL    HW164232   6.318   2.221   3.969
17391SOL    HW264233   6.481   2.230   3.975
17392SOL     OW64234   6.508   3.156   3.852
17392SOL    HW164235   6.564   3.137   3.933
17392SOL    HW264236   6.565   3.153   3.770
17393SOL     OW64237   7.312   3.488   4.368
17393SOL    HW164238   7.264   3.570   4.397
17393SOL    HW264239   7.311   3.481   4.269
17394SOL     OW64240   6.717   2.745   4.271
17394SOL    HW164241   6.765   2.768   4.356
17394SOL    HW264242   6.634   2.800   4.263
17395SOL     OW64243   6.383   3.487   5.324
17395SOL    HW164244   6.356   3.421   5.253
17395SOL    HW264245   6.393   3.439   5.411
17396SOL     OW64246   6.854   2.778   4.505
17396SOL    HW164247   6.839   2.687   4.544
17396SOL    HW264248   6.840   2.848   4.575
17397SOL     OW64249   5.875   2.913   4.575
17397SOL    HW164250   5.776   2.931   4.574
17397SOL    HW264251   5.908   2.919   4.670
17398SOL     OW64252   6.486   2.886   4.234
17398SOL    HW164253   6.439   2.827   4.168
17398SOL    HW264254   6.420   2.921   4.300
17399SOL     OW64255   6.818   3.217   5.106
17399SOL    HW164256   6.855   3.301   5.146
17399SOL    HW264257   6.720   3.213   5.121
17400SOL     OW64258   5.636   2.194   4.165
17400SOL    HW164259   5.688   2.205   4.080
17400SOL    HW264260   5.698   2.208   4.243
17401SOL     OW64261   7.225   3.630   3.900
17401SOL    HW164262   7.308   3.685   3.893
17401SOL    HW264263   7.201   3.594   3.809
17402SOL     OW64264   6.339   2.593   5.031
17402SOL    HW164265   6.315   2.679   5.076
17402SOL    HW264266   6.392   2.537   5.095
17403SOL     OW64267   6.342   2.742   4.053
17403SOL    HW164268   6.245   2.735   4.078
17403SOL    HW264269   6.370   2.659   4.005
17404SOL     OW64270   5.839   3.661   3.940
17404SOL    HW164271   5.928   3.700   3.914
17404SOL    HW264272   5.835   3.652   4.040
17405SOL     OW64273   6.859   3.573   4.842
17405SOL    HW164274   6.889   3.596   4.750
17405SOL    HW264275   6.785   3.506   4.837
17406SOL     OW64276   5.601   2.968   4.621
17406SOL    HW164277   5.516   2.960   4.568
17406SOL    HW264278   5.588   2.928   4.711
17407SOL     OW64279   6.370   1.891   4.149
17407SOL    HW164280   6.346   1.914   4.054
17407SOL    HW264281   6.378   1.975   4.203
17408SOL     OW64282   5.546   2.992   4.229
17408SOL    HW164283   5.619   3.052   4.260
17408SOL    HW264284   5.572   2.949   4.143
17409SOL     OW64285   7.210   2.146   5.263
17409SOL    HW164286   7.144   2.221   5.260
17409SOL    HW264287   7.253   2.143   5.353
17410SOL     OW64288   6.802   2.103   4.581
17410SOL    HW164289   6.829   2.180   4.523
17410SOL    HW264290   6.849   2.110   4.669
17411SOL     OW64291   6.979   1.902   3.859
17411SOL    HW164292   7.073   1.867   3.862
17411SOL    HW264293   6.916   1.824   3.860
17412SOL     OW64294   7.111   1.895   5.225
17412SOL    HW164295   7.120   1.863   5.131
17412SOL    HW264296   7.156   1.984   5.235
17413SOL     OW64297   6.367   2.108   4.333
17413SOL    HW164298   6.326   2.057   4.408
17413SOL    HW264299   6.366   2.206   4.354
17414SOL     OW64300   6.873   2.416   4.795
17414SOL    HW164301   6.841   2.457   4.710
17414SOL    HW264302   6.904   2.488   4.857
17415SOL     OW64303   7.126   1.900   4.148
17415SOL    HW164304   7.145   1.855   4.061
17415SOL    HW264305   7.033   1.936   4.147
17416SOL     OW64306   6.158   3.236   5.450
17416SOL    HW164307   6.121   3.297   5.379
17416SOL    HW264308   6.243   3.274   5.485
17417SOL     OW64309   5.935   2.945   5.331
17417SOL    HW164310   5.987   2.942   5.246
17417SOL    HW264311   5.904   3.039   5.347
17418SOL     OW64312   5.653   3.211   4.740
17418SOL    HW164313   5.638   3.129   4.685
17418SOL    HW264314   5.718   3.191   4.813
17419SOL     OW64315   6.743   2.509   4.563
17419SOL    HW164316   6.792   2.455   4.494
17419SOL    HW264317   6.676   2.451   4.610
17420SOL     OW64318   7.309   2.468   5.395
17420SOL    HW164319   7.302   2.548   5.336
17420SOL    HW264320   7.404   2.441   5.404
17421SOL     OW64321   6.944   2.157   4.820
17421SOL    HW164322   6.920   2.254   4.815
17421SOL    HW264323   6.929   2.124   4.913
17422SOL     OW64324   7.086   2.337   5.485
17422SOL    HW164325   7.164   2.388   5.449
17422SOL    HW264326   7.112   2.292   5.570
17423SOL     OW64327   6.873   2.686   4.066
17423SOL    HW164328   6.813   2.708   4.143
17423SOL    HW264329   6.967   2.715   4.087
17424SOL     OW64330   7.104   2.820   4.378
17424SOL    HW164331   7.103   2.808   4.279
17424SOL    HW264332   7.014   2.800   4.415
17425SOL     OW64333   7.301   2.682   5.221
17425SOL    HW164334   7.231   2.754   5.218
17425SOL    HW264335   7.392   2.724   5.221
17426SOL     OW64336   7.139   2.139   3.858
17426SOL    HW164337   7.158   2.173   3.951
17426SOL    HW264338   7.068   2.069   3.862
17427SOL     OW64339   6.313   3.330   5.102
17427SOL    HW164340   6.264   3.414   5.079
17427SOL    HW264341   6.270   3.253   5.055
17428SOL     OW64342   5.676   2.206   5.374
17428SOL    HW164343   5.678   2.197   5.274
17428SOL    HW264344   5.587   2.176   5.408
17429SOL     OW64345   5.821   2.209   4.370
17429SOL    HW164346   5.766   2.270   4.427
17429SOL    HW264347   5.877   2.150   4.428
17430SOL     OW64348   6.931   3.442   5.203
17430SOL    HW164349   6.868   3.508   5.244
17430SOL    HW264350   6.987   3.488   5.134
17431SOL     OW64351   5.891   2.465   3.954
17431SOL    HW164352   5.974   2.476   3.900
17431SOL    HW264353   5.903   2.508   4.044
17432SOL     OW64354   7.354   2.075   5.042
17432SOL    HW164355   7.297   2.110   5.116
17432SOL    HW264356   7.310   2.093   4.954
17433SOL     OW64357   6.016   3.693   4.438
17433SOL    HW164358   5.953   3.695   4.361
17433SOL    HW264359   6.064   3.605   4.439
17434SOL     OW64360   5.909   3.213   4.889
17434SOL    HW164361   5.895   3.235   4.986
17434SOL    HW264362   5.901   3.297   4.835
17435SOL     OW64363   6.719   3.430   5.518
17435SOL    HW164364   6.698   3.337   5.486
17435SOL    HW264365   6.732   3.490   5.440
17436SOL     OW64366   6.292   3.155   4.182
17436SOL    HW164367   6.297   3.096   4.101
17436SOL    HW264368   6.291   3.099   4.264
17437SOL     OW64369   5.940   2.668   4.465
17437SOL    HW164370   5.932   2.762   4.499
17437SOL    HW264371   6.019   2.624   4.508
17438SOL     OW64372   5.801   2.202   3.949
17438SOL    HW164373   5.835   2.154   3.868
17438SOL    HW264374   5.830   2.298   3.945
17439SOL     OW64375   5.645   2.370   4.503
17439SOL    HW164376   5.664   2.461   4.540
17439SOL    HW264377   5.567   2.330   4.552
17440SOL     OW64378   6.038   2.969   3.919
17440SOL    HW164379   6.136   2.985   3.932
17440SOL    HW264380   5.991   3.057   3.914
17441SOL     OW64381   6.666   2.578   3.733
17441SOL    HW164382   6.618   2.638   3.669
17441SOL    HW264383   6.726   2.517   3.682
17442SOL     OW64384   6.421   2.540   3.875
17442SOL    HW164385   6.513   2.544   3.837
17442SOL    HW264386   6.394   2.444   3.887
17443SOL     OW64387   6.877   2.017   4.165
17443SOL    HW164388   6.793   2.007   4.218
17443SOL    HW264389   6.897   2.114   4.152
17444SOL     OW64390   6.996   2.322   5.183
17444SOL    HW164391   6.933   2.364   5.249
17444SOL    HW264392   6.953   2.241   5.144
17445SOL     OW64393   5.618   1.937   3.857
17445SOL    HW164394   5.690   1.868   3.859
17445SOL    HW264395   5.649   2.019   3.905
17446SOL     OW64396   5.940   2.947   4.835
17446SOL    HW164397   5.972   2.906   4.920
17446SOL    HW264398   5.922   3.045   4.851
17447SOL     OW64399   7.202   2.918   3.897
17447SOL    HW164400   7.300   2.928   3.914
17447SOL    HW264401   7.187   2.906   3.798
17448SOL     OW64402   6.145   2.517   4.840
17448SOL    HW164403   6.213   2.540   4.910
17448SOL    HW264404   6.068   2.470   4.883
17449SOL     OW64405   6.305   2.833   5.166
17449SOL    HW164406   6.374   2.878   5.110
17449SOL    HW264407   6.295   2.882   5.252
17450SOL     OW64408   6.719   2.902   5.367
17450SOL    HW164409   6.636   2.846   5.370
17450SOL    HW264410   6.796   2.848   5.400
17451SOL     OW64411   6.650   2.091   4.324
17451SOL    HW164412   6.690   2.088   4.415
17451SOL    HW264413   6.550   2.084   4.331
17452SOL     OW64414   6.750   3.612   5.315
17452SOL    HW164415   6.672   3.637   5.257
17452SOL    HW264416   6.785   3.694   5.360
17453SOL     OW64417   6.260   2.024   4.576
17453SOL    HW164418   6.227   1.947   4.630
17453SOL    HW264419   6.347   2.057   4.612
17454SOL     OW64420   6.539   3.075   4.585
17454SOL    HW164421   6.566   3.163   4.544
17454SOL    HW264422   6.619   3.032   4.627
17455SOL     OW64423   6.293   2.775   4.587
17455SOL    HW164424   6.389   2.749   4.594
17455SOL    HW264425   6.236   2.692   4.585
17456SOL     OW64426   5.536   2.862   4.866
17456SOL    HW164427   5.599   2.807   4.922
17456SOL    HW264428   5.464   2.803   4.830
17457SOL     OW64429   5.802   1.840   4.140
17457SOL    HW164430   5.869   1.913   4.158
17457SOL    HW264431   5.716   1.862   4.185
17458SOL     OW64432   6.170   2.462   5.500
17458SOL    HW164433   6.158   2.515   5.416
17458SOL    HW264434   6.262   2.477   5.536
17459SOL     OW64435   5.695   2.895   4.016
17459SOL    HW164436   5.684   2.802   3.983
17459SOL    HW264437   5.708   2.956   3.937
17460SOL     OW64438   7.291   2.102   4.538
17460SOL    HW164439   7.271   2.109   4.636
17460SOL    HW264440   7.390   2.097   4.525
17461SOL     OW64441   6.335   3.007   4.760
17461SOL    HW164442   6.297   2.925   4.718
17461SOL    HW264443   6.406   3.045   4.701
17462SOL     OW64444   6.764   2.455   3.980
17462SOL    HW164445   6.803   2.538   4.020
17462SOL    HW264446   6.726   2.476   3.889
17463SOL     OW64447   7.094   3.302   5.372
17463SOL    HW164448   7.056   3.218   5.411
17463SOL    HW264449   7.026   3.345   5.313
17464SOL     OW64450   5.712   2.724   5.039
17464SOL    HW164451   5.779   2.659   5.075
17464SOL    HW264452   5.692   2.794   5.109
17465SOL     OW64453   6.349   3.367   3.760
17465SOL    HW164454   6.317   3.429   3.832
17465SOL    HW264455   6.409   3.298   3.800
17466SOL     OW64456   6.087   3.522   4.784
17466SOL    HW164457   6.140   3.503   4.701
17466SOL    HW264458   5.991   3.502   4.767
17467SOL     OW64459   6.312   2.996   4.424
17467SOL    HW164460   6.385   3.045   4.471
17467SOL    HW264461   6.289   2.912   4.474
17468SOL     OW64462   6.500   3.337   4.230
17468SOL    HW164463   6.565   3.357   4.155
17468SOL    HW264464   6.435   3.268   4.199
17469SOL     OW64465   5.690   2.629   4.576
17469SOL    HW164466   5.782   2.644   4.538
17469SOL    HW264467   5.624   2.685   4.527
17470SOL     OW64468   5.573   2.807   5.524
17470SOL    HW164469   5.474   2.802   5.517
17470SOL    HW264470   5.604   2.755   5.604
17471SOL     OW64471   6.521   3.658   5.160
17471SOL    HW164472   6.478   3.591   5.220
17471SOL    HW264473   6.452   3.722   5.127
17472SOL     OW64474   6.784   2.967   4.698
17472SOL    HW164475   6.805   3.064   4.696
17472SOL    HW264476   6.830   2.923   4.775
17473SOL     OW64477   6.101   2.202   5.479
17473SOL    HW164478   6.168   2.163   5.416
17473SOL    HW264479   6.121   2.299   5.494
17474SOL     OW64480   6.074   2.764   4.101
17474SOL    HW164481   6.043   2.835   4.038
17474SOL    HW264482   5.996   2.708   4.130
17475SOL     OW64483   7.167   2.779   4.693
17475SOL    HW164484   7.181   2.862   4.640
17475SOL    HW264485   7.112   2.800   4.774
17476SOL     OW64486   6.906   2.071   5.095
17476SOL    HW164487   6.970   2.016   5.150
17476SOL    HW264488   6.840   2.010   5.050
17477SOL     OW64489   5.562   1.940   4.229
17477SOL    HW164490   5.470   1.921   4.195
17477SOL    HW264491   5.585   2.036   4.210
17478SOL     OW64492   6.755   1.954   5.335
17478SOL    HW164493   6.770   2.004   5.420
17478SOL    HW264494   6.763   2.018   5.258
17479SOL     OW64495   6.051   3.436   5.278
17479SOL    HW164496   6.032   3.510   5.343
17479SOL    HW264497   6.088   3.474   5.193
17480SOL     OW64498   7.329   3.313   5.234
17480SOL    HW164499   7.377   3.397   5.262
17480SOL    HW264500   7.243   3.306   5.284
17481SOL     OW64501   6.590   2.342   4.711
17481SOL    HW164502   6.644   2.341   4.794
17481SOL    HW264503   6.547   2.252   4.699
17482SOL     OW64504   5.979   3.334   4.398
17482SOL    HW164505   5.990   3.235   4.395
17482SOL    HW264506   5.885   3.358   4.375
17483SOL     OW64507   6.644   3.394   4.840
17483SOL    HW164508   6.605   3.368   4.928
17483SOL    HW264509   6.569   3.413   4.775
17484SOL     OW64510   5.708   3.137   5.344
17484SOL    HW164511   5.678   3.048   5.310
17484SOL    HW264512   5.629   3.196   5.359
17485SOL     OW64513   5.852   3.402   4.687
17485SOL    HW164514   5.765   3.353   4.692
17485SOL    HW264515   5.877   3.414   4.591
17486SOL     OW64516   6.526   2.065   4.675
17486SOL    HW164517   6.622   2.064   4.647
17486SOL    HW264518   6.506   1.983   4.729
17487SOL     OW64519   6.627   3.081   4.089
17487SOL    HW164520   6.720   3.092   4.124
17487SOL    HW264521   6.580   3.010   4.142
17488SOL     OW64522   7.161   2.321   4.428
17488SOL    HW164523   7.186   2.400   4.484
17488SOL    HW264524   7.207   2.240   4.464
17489SOL     OW64525   6.306   3.001   3.953
17489SOL    HW164526   6.381   3.051   3.911
17489SOL    HW264527   6.334   2.908   3.974
17490SOL     OW64528   6.341   1.953   3.864
17490SOL    HW164529   6.418   1.889   3.856
17490SOL    HW264530   6.377   2.047   3.867
17491SOL     OW64531   6.069   2.943   5.091
17491SOL    HW164532   6.151   2.891   5.115
17491SOL    HW264533   6.095   3.030   5.049
17492SOL     OW64534   7.293   2.952   5.008
17492SOL    HW164535   7.300   3.050   4.991
17492SOL    HW264536   7.353   2.903   4.946
17493SOL     OW64537   5.748   3.071   3.810
17493SOL    HW164538   5.744   3.057   3.711
17493SOL    HW264539   5.814   3.142   3.831
17494SOL     OW64540   6.207   3.525   3.939
17494SOL    HW164541   6.142   3.593   3.905
17494SOL    HW264542   6.163   3.467   4.006
17495SOL     OW64543   6.877   2.956   5.148
17495SOL    HW164544   6.817   2.922   5.221
17495SOL    HW264545   6.858   3.053   5.133
17496SOL     OW64546   6.157   3.548   5.047
17496SOL    HW164547   6.194   3.640   5.059
17496SOL    HW264548   6.126   3.537   4.953
17497SOL     OW64549   5.735   2.468   5.395
17497SOL    HW164550   5.721   2.369   5.393
17497SOL    HW264551   5.803   2.490   5.466
17498SOL     OW64552   7.196   3.363   4.736
17498SOL    HW164553   7.230   3.453   4.765
17498SOL    HW264554   7.211   3.296   4.808
17499SOL     OW64555   5.527   2.757   4.382
17499SOL    HW164556   5.553   2.842   4.337
17499SOL    HW264557   5.428   2.743   4.373
17500SOL     OW64558   6.120   2.610   5.279
17500SOL    HW164559   6.033   2.596   5.232
17500SOL    HW264560   6.166   2.690   5.240
17501SOL     OW64561   7.192   3.020   4.544
17501SOL    HW164562   7.170   3.115   4.523
17501SOL    HW264563   7.156   2.960   4.472
17502SOL     OW64564   6.180   3.150   4.942
17502SOL    HW164565   6.092   3.181   4.906
17502SOL    HW264566   6.230   3.103   4.869
17503SOL     OW64567   5.705   2.532   4.836
17503SOL    HW164568   5.708   2.606   4.903
17503SOL    HW264569   5.702   2.571   4.744
17504SOL     OW64570   5.885   3.251   5.158
17504SOL    HW164571   5.944   3.316   5.205
17504SOL    HW264572   5.816   3.217   5.221
17505SOL     OW64573   7.185   3.544   5.474
17505SOL    HW164574   7.154   3.450   5.460
17505SOL    HW264575   7.152   3.601   5.399
17506SOL     OW64576   6.896   3.092   4.160
17506SOL    HW164577   6.988   3.097   4.199
17506SOL    HW264578   6.902   3.072   4.063
17507SOL     OW64579   6.205   2.175   4.114
17507SOL    HW164580   6.115   2.131   4.120
17507SOL    HW264581   6.262   2.145   4.191
17508SOL     OW64582   7.153   1.890   4.423
17508SOL    HW164583   7.140   1.904   4.325
17508SOL    HW264584   7.204   1.967   4.461
17509SOL     OW64585   6.705   2.586   5.060
17509SOL    HW164586   6.802   2.592   5.038
17509SOL    HW264587   6.653   2.640   4.994
17510SOL     OW64588   6.833   3.235   4.716
17510SOL    HW164589   6.763   3.286   4.766
17510SOL    HW264590   6.858   3.285   4.633
17511SOL     OW64591   6.886   2.315   4.415
17511SOL    HW164592   6.870   2.304   4.317
17511SOL    HW264593   6.984   2.321   4.432
17512SOL     OW64594   6.637   3.272   6.267
17512SOL    HW164595   6.727   3.313   6.278
17512SOL    HW264596   6.593   3.308   6.184
17513SOL     OW64597   7.165   3.119   6.092
17513SOL    HW164598   7.169   3.174   6.175
17513SOL    HW264599   7.256   3.081   6.073
17514SOL     OW64600   5.872   2.059   5.488
17514SOL    HW164601   5.806   2.113   5.435
17514SOL    HW264602   5.961   2.105   5.485
17515SOL     OW64603   6.878   3.398   6.336
17515SOL    HW164604   6.890   3.495   6.356
17515SOL    HW264605   6.967   3.358   6.313
17516SOL     OW64606   6.717   1.921   6.837
17516SOL    HW164607   6.627   1.883   6.857
17516SOL    HW264608   6.766   1.860   6.775
17517SOL     OW64609   6.508   2.715   7.274
17517SOL    HW164610   6.478   2.641   7.213
17517SOL    HW264611   6.429   2.751   7.324
17518SOL     OW64612   6.120   3.305   5.919
17518SOL    HW164613   6.061   3.310   5.999
17518SOL    HW264614   6.203   3.254   5.942
17519SOL     OW64615   7.134   2.903   7.083
17519SOL    HW164616   7.041   2.925   7.053
17519SOL    HW264617   7.200   2.945   7.020
17520SOL     OW64618   6.968   2.914   6.744
17520SOL    HW164619   6.927   2.893   6.833
17520SOL    HW264620   7.004   3.007   6.745
17521SOL     OW64621   6.533   3.222   6.995
17521SOL    HW164622   6.451   3.277   6.984
17521SOL    HW264623   6.526   3.139   6.940
17522SOL     OW64624   6.880   2.393   7.304
17522SOL    HW164625   6.971   2.398   7.345
17522SOL    HW264626   6.829   2.319   7.346
17523SOL     OW64627   6.000   3.223   5.677
17523SOL    HW164628   6.059   3.236   5.598
17523SOL    HW264629   6.037   3.271   5.756
17524SOL     OW64630   6.090   2.271   6.658
17524SOL    HW164631   6.166   2.332   6.635
17524SOL    HW264632   6.108   2.180   6.621
17525SOL     OW64633   5.840   2.631   5.971
17525SOL    HW164634   5.808   2.652   6.063
17525SOL    HW264635   5.775   2.666   5.904
17526SOL     OW64636   6.283   3.548   6.134
17526SOL    HW164637   6.360   3.487   6.113
17526SOL    HW264638   6.281   3.622   6.067
17527SOL     OW64639   7.351   3.472   5.954
17527SOL    HW164640   7.429   3.411   5.938
17527SOL    HW264641   7.318   3.508   5.867
17528SOL     OW64642   7.197   2.194   6.574
17528SOL    HW164643   7.233   2.272   6.625
17528SOL    HW264644   7.099   2.186   6.590
17529SOL     OW64645   6.616   2.141   5.860
17529SOL    HW164646   6.706   2.180   5.839
17529SOL    HW264647   6.620   2.094   5.948
17530SOL     OW64648   5.717   2.880   7.179
17530SOL    HW164649   5.806   2.907   7.217
17530SOL    HW264650   5.665   2.832   7.250
17531SOL     OW64651   5.923   2.540   5.590
17531SOL    HW164652   5.935   2.639   5.584
17531SOL    HW264653   6.007   2.494   5.561
17532SOL     OW64654   6.208   3.367   6.326
17532SOL    HW164655   6.234   3.439   6.261
17532SOL    HW264656   6.151   3.299   6.279
17533SOL     OW64657   6.455   2.484   7.127
17533SOL    HW164658   6.472   2.413   7.195
17533SOL    HW264659   6.528   2.485   7.060
17534SOL     OW64660   7.143   3.269   6.340
17534SOL    HW164661   7.165   3.300   6.432
17534SOL    HW264662   7.163   3.342   6.274
17535SOL     OW64663   5.894   3.039   5.994
17535SOL    HW164664   5.965   3.013   5.928
17535SOL    HW264665   5.804   3.017   5.956
17536SOL     OW64666   6.781   2.049   5.593
17536SOL    HW164667   6.877   2.035   5.620
17536SOL    HW264668   6.725   1.978   5.636
17537SOL     OW64669   6.002   2.474   6.819
17537SOL    HW164670   6.011   2.388   6.769
17537SOL    HW264671   5.922   2.524   6.786
17538SOL     OW64672   7.074   2.540   6.889
17538SOL    HW164673   7.133   2.590   6.953
17538SOL    HW264674   7.006   2.488   6.941
17539SOL     OW64675   5.855   2.202   6.021
17539SOL    HW164676   5.926   2.206   6.091
17539SOL    HW264677   5.875   2.268   5.948
17540SOL     OW64678   7.074   3.591   6.848
17540SOL    HW164679   6.996   3.594   6.785
17540SOL    HW264680   7.158   3.578   6.795
17541SOL     OW64681   7.247   2.435   6.697
17541SOL    HW164682   7.333   2.486   6.699
17541SOL    HW264683   7.188   2.466   6.771
17542SOL     OW64684   7.352   3.569   6.711
17542SOL    HW164685   7.374   3.612   6.798
17542SOL    HW264686   7.437   3.541   6.666
17543SOL     OW64687   6.794   2.819   5.681
17543SOL    HW164688   6.810   2.780   5.771
17543SOL    HW264689   6.756   2.749   5.620
17544SOL     OW64690   6.497   2.303   7.331
17544SOL    HW164691   6.587   2.263   7.350
17544SOL    HW264692   6.434   2.280   7.406
17545SOL     OW64693   7.293   2.531   5.905
17545SOL    HW164694   7.245   2.443   5.912
17545SOL    HW264695   7.356   2.540   5.983
17546SOL     OW64696   6.549   3.624   5.665
17546SOL    HW164697   6.584   3.567   5.591
17546SOL    HW264698   6.572   3.581   5.753
17547SOL     OW64699   7.192   2.515   6.439
17547SOL    HW164700   7.160   2.609   6.448
17547SOL    HW264701   7.204   2.476   6.531
17548SOL     OW64702   6.639   3.172   7.263
17548SOL    HW164703   6.673   3.079   7.255
17548SOL    HW264704   6.590   3.197   7.179
17549SOL     OW64705   6.289   2.991   7.256
17549SOL    HW164706   6.232   3.068   7.281
17549SOL    HW264707   6.298   2.929   7.335
17550SOL     OW64708   6.937   1.833   6.411
17550SOL    HW164709   6.890   1.922   6.412
17550SOL    HW264710   7.019   1.840   6.355
17551SOL     OW64711   5.466   2.519   6.152
17551SOL    HW164712   5.442   2.427   6.183
17551SOL    HW264713   5.402   2.585   6.190
17552SOL     OW64714   6.579   2.728   6.490
17552SOL    HW164715   6.609   2.806   6.436
17552SOL    HW264716   6.615   2.644   6.449
17553SOL     OW64717   5.668   3.394   5.738
17553SOL    HW164718   5.696   3.305   5.702
17553SOL    HW264719   5.750   3.446   5.764
17554SOL     OW64720   7.003   3.191   6.776
17554SOL    HW164721   6.963   3.226   6.692
17554SOL    HW264722   6.938   3.201   6.851
17555SOL     OW64723   7.265   3.240   6.830
17555SOL    HW164724   7.282   3.283   6.918
17555SOL    HW264725   7.167   3.222   6.820
17556SOL     OW64726   5.999   2.800   5.560
17556SOL    HW164727   5.978   2.848   5.474
17556SOL    HW264728   6.012   2.867   5.633
17557SOL     OW64729   6.503   3.002   6.832
17557SOL    HW164730   6.558   2.919   6.821
17557SOL    HW264731   6.457   3.024   6.745
17558SOL     OW64732   5.671   2.669   5.745
17558SOL    HW164733   5.728   2.604   5.694
17558SOL    HW264734   5.596   2.620   5.789
17559SOL     OW64735   7.122   2.747   5.938
17559SOL    HW164736   7.184   2.669   5.925
17559SOL    HW264737   7.144   2.817   5.870
17560SOL     OW64738   6.390   3.633   6.517
17560SOL    HW164739   6.440   3.556   6.479
17560SOL    HW264740   6.313   3.599   6.571
17561SOL     OW64741   6.281   2.748   5.551
17561SOL    HW164742   6.317   2.668   5.600
17561SOL    HW264743   6.181   2.746   5.553
17562SOL     OW64744   6.906   2.263   5.918
17562SOL    HW164745   6.866   2.335   5.861
17562SOL    HW264746   7.004   2.280   5.930
17563SOL     OW64747   6.594   2.743   6.772
17563SOL    HW164748   6.596   2.732   6.673
17563SOL    HW264749   6.509   2.706   6.808
17564SOL     OW64750   7.186   2.278   5.975
17564SOL    HW164751   7.273   2.228   5.976
17564SOL    HW264752   7.159   2.299   6.069
17565SOL     OW64753   6.467   3.377   6.450
17565SOL    HW164754   6.532   3.336   6.386
17565SOL    HW264755   6.374   3.359   6.419
17566SOL     OW64756   6.421   2.228   5.695
17566SOL    HW164757   6.330   2.213   5.734
17566SOL    HW264758   6.491   2.201   5.761
17567SOL     OW64759   6.539   3.152   5.673
17567SOL    HW164760   6.590   3.138   5.758
17567SOL    HW264761   6.602   3.147   5.596
17568SOL     OW64762   7.180   3.469   6.172
17568SOL    HW164763   7.168   3.564   6.201
17568SOL    HW264764   7.236   3.467   6.089
17569SOL     OW64765   6.728   2.797   6.126
17569SOL    HW164766   6.774   2.808   6.214
17569SOL    HW264767   6.648   2.858   6.122
17570SOL     OW64768   6.376   3.478   7.181
17570SOL    HW164769   6.342   3.425   7.104
17570SOL    HW264770   6.371   3.424   7.264
17571SOL     OW64771   6.868   2.834   6.358
17571SOL    HW164772   6.937   2.783   6.411
17571SOL    HW264773   6.832   2.908   6.415
17572SOL     OW64774   6.479   2.934   6.097
17572SOL    HW164775   6.436   2.866   6.038
17572SOL    HW264776   6.451   2.918   6.192
17573SOL     OW64777   6.810   3.227   6.966
17573SOL    HW164778   6.848   3.313   7.000
17573SOL    HW264779   6.710   3.229   6.977
17574SOL     OW64780   5.592   2.196   5.929
17574SOL    HW164781   5.629   2.185   5.836
17574SOL    HW264782   5.666   2.213   5.993
17575SOL     OW64783   7.259   3.618   5.737
17575SOL    HW164784   7.336   3.679   5.717
17575SOL    HW264785   7.217   3.586   5.652
17576SOL     OW64786   6.368   2.654   6.905
17576SOL    HW164787   6.331   2.740   6.941
17576SOL    HW264788   6.387   2.592   6.982
17577SOL     OW64789   5.673   3.641   6.950
17577SOL    HW164790   5.670   3.740   6.966
17577SOL    HW264791   5.636   3.594   7.030
17578SOL     OW64792   6.365   2.764   5.907
17578SOL    HW164793   6.267   2.744   5.910
17578SOL    HW264794   6.416   2.682   5.881
17579SOL     OW64795   5.909   3.581   5.814
17579SOL    HW164796   5.973   3.630   5.755
17579SOL    HW264797   5.888   3.637   5.894
17580SOL     OW64798   6.849   3.592   6.680
17580SOL    HW164799   6.882   3.613   6.587
17580SOL    HW264800   6.772   3.528   6.674
17581SOL     OW64801   6.827   2.087   6.419
17581SOL    HW164802   6.830   2.150   6.341
17581SOL    HW264803   6.858   2.134   6.501
17582SOL     OW64804   7.019   1.973   5.705
17582SOL    HW164805   7.081   1.896   5.693
17582SOL    HW264806   6.970   1.964   5.792
17583SOL     OW64807   6.922   2.509   6.658
17583SOL    HW164808   6.945   2.576   6.587
17583SOL    HW264809   6.976   2.528   6.740
17584SOL     OW64810   7.156   1.865   5.970
17584SOL    HW164811   7.176   1.826   5.881
17584SOL    HW264812   7.067   1.911   5.967
17585SOL     OW64813   6.116   3.218   7.313
17585SOL    HW164814   6.073   3.280   7.247
17585SOL    HW264815   6.199   3.261   7.351
17586SOL     OW64816   5.971   2.964   7.253
17586SOL    HW164817   5.997   2.934   7.161
17586SOL    HW264818   6.004   3.057   7.269
17587SOL     OW64819   6.679   2.492   6.392
17587SOL    HW164820   6.715   2.423   6.329
17587SOL    HW264821   6.663   2.451   6.481
17588SOL     OW64822   7.335   2.503   7.295
17588SOL    HW164823   7.305   2.556   7.215
17588SOL    HW264824   7.433   2.485   7.288
17589SOL     OW64825   6.929   2.231   6.627
17589SOL    HW164826   6.924   2.331   6.631
17589SOL    HW264827   6.908   2.194   6.718
17590SOL     OW64828   7.127   2.390   7.438
17590SOL    HW164829   7.206   2.420   7.383
17590SOL    HW264830   7.152   2.306   7.486
17591SOL     OW64831   6.856   2.693   5.915
17591SOL    HW164832   6.804   2.726   5.993
17591SOL    HW264833   6.953   2.711   5.929
17592SOL     OW64834   7.101   2.817   6.201
17592SOL    HW164835   7.104   2.798   6.103
17592SOL    HW264836   7.006   2.824   6.231
17593SOL     OW64837   7.291   2.676   7.080
17593SOL    HW164838   7.227   2.754   7.077
17593SOL    HW264839   7.385   2.710   7.077
17594SOL     OW64840   7.170   2.199   5.703
17594SOL    HW164841   7.181   2.231   5.797
17594SOL    HW264842   7.111   2.118   5.702
17595SOL     OW64843   6.292   3.366   6.941
17595SOL    HW164844   6.231   3.445   6.943
17595SOL    HW264845   6.266   3.306   6.866
17596SOL     OW64846   5.577   3.519   7.181
17596SOL    HW164847   5.665   3.522   7.229
17596SOL    HW264848   5.503   3.533   7.246
17597SOL     OW64849   6.928   3.457   7.047
17597SOL    HW164850   6.869   3.523   7.094
17597SOL    HW264851   6.982   3.503   6.978
17598SOL     OW64852   5.877   2.398   5.824
17598SOL    HW164853   5.905   2.437   5.736
17598SOL    HW264854   5.867   2.471   5.891
17599SOL     OW64855   6.051   3.712   6.218
17599SOL    HW164856   5.981   3.725   6.148
17599SOL    HW264857   6.118   3.645   6.186
17600SOL     OW64858   6.772   3.403   7.355
17600SOL    HW164859   6.726   3.320   7.325
17600SOL    HW264860   6.756   3.476   7.287
17601SOL     OW64861   6.338   3.152   5.982
17601SOL    HW164862   6.333   3.107   5.893
17601SOL    HW264863   6.381   3.091   6.048
17602SOL     OW64864   5.746   2.174   5.705
17602SOL    HW164865   5.799   2.131   5.633
17602SOL    HW264866   5.797   2.253   5.741
17603SOL     OW64867   6.060   2.975   5.769
17603SOL    HW164868   6.160   2.978   5.766
17603SOL    HW264869   6.023   3.062   5.737
17604SOL     OW64870   6.684   2.589   5.544
17604SOL    HW164871   6.625   2.645   5.486
17604SOL    HW264872   6.747   2.536   5.486
17605SOL     OW64873   6.418   2.503   5.623
17605SOL    HW164874   6.511   2.531   5.602
17605SOL    HW264875   6.419   2.408   5.656
17606SOL     OW64876   6.911   1.991   5.956
17606SOL    HW164877   6.832   1.966   6.011
17606SOL    HW264878   6.914   2.090   5.943
17607SOL     OW64879   6.882   2.387   7.016
17607SOL    HW164880   6.883   2.385   7.116
17607SOL    HW264881   6.884   2.293   6.982
17608SOL     OW64882   5.603   1.937   5.664
17608SOL    HW164883   5.667   1.861   5.679
17608SOL    HW264884   5.648   2.023   5.688
17609SOL     OW64885   7.196   2.910   5.732
17609SOL    HW164886   7.294   2.924   5.750
17609SOL    HW264887   7.181   2.895   5.635
17610SOL     OW64888   6.232   2.546   6.694
17610SOL    HW164889   6.294   2.580   6.765
17610SOL    HW264890   6.143   2.527   6.735
17611SOL     OW64891   6.303   2.908   6.997
17611SOL    HW164892   6.377   2.950   6.945
17611SOL    HW264893   6.307   2.938   7.092
17612SOL     OW64894   6.703   2.904   7.215
17612SOL    HW164895   6.623   2.845   7.229
17612SOL    HW264896   6.785   2.857   7.248
17613SOL     OW64897   6.683   2.043   6.114
17613SOL    HW164898   6.730   2.122   6.153
17613SOL    HW264899   6.634   1.993   6.186
17614SOL     OW64900   6.751   3.619   7.179
17614SOL    HW164901   6.671   3.637   7.122
17614SOL    HW264902   6.773   3.700   7.233
17615SOL     OW64903   5.906   3.670   6.809
17615SOL    HW164904   5.905   3.622   6.722
17615SOL    HW264905   5.820   3.652   6.857
17616SOL     OW64906   6.567   3.033   6.391
17616SOL    HW164907   6.586   3.113   6.333
17616SOL    HW264908   6.641   3.020   6.456
17617SOL     OW64909   6.318   2.772   6.560
17617SOL    HW164910   6.410   2.748   6.529
17617SOL    HW264911   6.273   2.690   6.597
17618SOL     OW64912   5.499   2.726   6.794
17618SOL    HW164913   5.563   2.696   6.865
17618SOL    HW264914   5.459   2.646   6.750
17619SOL     OW64915   5.773   1.939   5.938
17619SOL    HW164916   5.811   2.028   5.965
17619SOL    HW264917   5.683   1.928   5.980
17620SOL     OW64918   6.198   2.515   7.230
17620SOL    HW164919   6.141   2.559   7.161
17620SOL    HW264920   6.288   2.496   7.191
17621SOL     OW64921   5.680   2.954   5.815
17621SOL    HW164922   5.689   2.862   5.778
17621SOL    HW264923   5.701   3.021   5.744
17622SOL     OW64924   7.257   2.098   6.331
17622SOL    HW164925   7.243   2.130   6.425
17622SOL    HW264926   7.352   2.116   6.304
17623SOL     OW64927   6.368   3.037   6.591
17623SOL    HW164928   6.333   2.943   6.584
17623SOL    HW264929   6.431   3.054   6.515
17624SOL     OW64930   6.801   2.467   5.774
17624SOL    HW164931   6.819   2.546   5.832
17624SOL    HW264932   6.754   2.496   5.691
17625SOL     OW64933   7.078   3.316   7.230
17625SOL    HW164934   7.037   3.234   7.269
17625SOL    HW264935   7.013   3.359   7.168
17626SOL     OW64936   5.678   2.675   7.005
17626SOL    HW164937   5.702   2.596   7.061
17626SOL    HW264938   5.704   2.759   7.053
17627SOL     OW64939   6.382   3.348   5.558
17627SOL    HW164940   6.333   3.401   5.628
17627SOL    HW264941   6.442   3.282   5.603
17628SOL     OW64942   6.179   3.458   6.589
17628SOL    HW164943   6.175   3.430   6.493
17628SOL    HW264944   6.186   3.377   6.647
17629SOL     OW64945   6.488   3.373   6.054
17629SOL    HW164946   6.554   3.400   5.984
17629SOL    HW264947   6.435   3.295   6.022
17630SOL     OW64948   5.572   2.733   7.351
17630SOL    HW164949   5.475   2.728   7.329
17630SOL    HW264950   5.587   2.702   7.445
17631SOL     OW64951   6.523   3.654   7.024
17631SOL    HW164952   6.482   3.581   7.079
17631SOL    HW264953   6.454   3.722   7.001
17632SOL     OW64954   6.783   3.005   6.554
17632SOL    HW164955   6.802   3.103   6.561
17632SOL    HW264956   6.830   2.956   6.627
17633SOL     OW64957   5.947   2.317   7.306
17633SOL    HW164958   6.026   2.273   7.263
17633SOL    HW264959   5.979   2.394   7.361
17634SOL     OW64960   6.095   2.726   5.895
17634SOL    HW164961   6.071   2.813   5.851
17634SOL    HW264962   6.012   2.683   5.930
17635SOL     OW64963   7.080   2.770   6.531
17635SOL    HW164964   7.132   2.843   6.485
17635SOL    HW264965   7.044   2.804   6.618
17636SOL     OW64966   6.895   2.124   6.877
17636SOL    HW164967   6.980   2.071   6.868
17636SOL    HW264968   6.817   2.062   6.871
17637SOL     OW64969   5.510   1.956   6.035
17637SOL    HW164970   5.412   1.940   6.020
17637SOL    HW264971   5.534   2.047   6.002
17638SOL     OW64972   6.002   3.410   7.151
17638SOL    HW164973   5.931   3.457   7.203
17638SOL    HW264974   6.045   3.474   7.087
17639SOL     OW64975   7.313   3.322   7.091
17639SOL    HW164976   7.361   3.407   7.114
17639SOL    HW264977   7.227   3.317   7.142
17640SOL     OW64978   6.661   2.421   6.656
17640SOL    HW164979   6.755   2.455   6.662
17640SOL    HW264980   6.620   2.420   6.747
17641SOL     OW64981   6.008   3.225   6.169
17641SOL    HW164982   5.975   3.149   6.111
17641SOL    HW264983   5.934   3.256   6.228
17642SOL     OW64984   6.627   3.421   6.672
17642SOL    HW164985   6.576   3.418   6.758
17642SOL    HW264986   6.565   3.407   6.595
17643SOL     OW64987   5.819   3.558   7.313
17643SOL    HW164988   5.836   3.656   7.302
17643SOL    HW264989   5.821   3.535   7.410
17644SOL     OW64990   5.685   3.150   7.157
17644SOL    HW164991   5.678   3.050   7.153
17644SOL    HW264992   5.601   3.191   7.121
17645SOL     OW64993   6.590   1.949   6.354
17645SOL    HW164994   6.666   1.994   6.401
17645SOL    HW264995   6.534   1.899   6.421
17646SOL     OW64996   6.641   3.092   5.925
17646SOL    HW164997   6.734   3.104   5.961
17646SOL    HW264998   6.588   3.036   5.988
17647SOL     OW64999   7.117   2.321   6.244
17647SOL    HW165000   7.138   2.397   6.305
17647SOL    HW265001   7.162   2.238   6.277
17648SOL     OW65002   6.329   2.998   5.756
17648SOL    HW165003   6.405   3.046   5.712
17648SOL    HW265004   6.362   2.911   5.792
17649SOL     OW65005   6.409   1.945   5.638
17649SOL    HW165006   6.496   1.902   5.661
17649SOL    HW265007   6.417   2.044   5.647
17650SOL     OW65008   6.030   2.911   6.990
17650SOL    HW165009   6.129   2.912   6.980
17650SOL    HW265010   5.994   3.004   6.980
17651SOL     OW65011   7.335   2.993   6.925
17651SOL    HW165012   7.315   3.084   6.889
17651SOL    HW265013   7.373   2.936   6.851
17652SOL     OW65014   5.747   3.145   5.627
17652SOL    HW165015   5.729   3.141   5.529
17652SOL    HW265016   5.841   3.174   5.643
17653SOL     OW65017   6.219   3.478   5.729
17653SOL    HW165018   6.164   3.560   5.712
17653SOL    HW265019   6.182   3.429   5.809
17654SOL     OW65020   6.876   2.965   7.005
17654SOL    HW165021   6.812   2.926   7.071
17654SOL    HW265022   6.855   3.061   6.989
17655SOL     OW65023   6.118   3.585   6.967
17655SOL    HW165024   6.178   3.664   6.983
17655SOL    HW265025   6.043   3.611   6.907
17656SOL     OW65026   5.731   2.489   7.218
17656SOL    HW165027   5.808   2.428   7.236
17656SOL    HW265028   5.726   2.558   7.290
17657SOL     OW65029   7.207   3.369   6.584
17657SOL    HW165030   7.251   3.456   6.604
17657SOL    HW265031   7.216   3.308   6.662
17658SOL     OW65032   6.048   2.633   7.039
17658SOL    HW165033   6.031   2.575   6.960
17658SOL    HW265034   6.031   2.729   7.014
17659SOL     OW65035   7.183   2.998   6.391
17659SOL    HW165036   7.158   3.095   6.379
17659SOL    HW265037   7.155   2.947   6.310
17660SOL     OW65038   6.206   3.214   6.728
17660SOL    HW165039   6.123   3.164   6.752
17660SOL    HW265040   6.267   3.155   6.674
17661SOL     OW65041   5.795   2.634   6.758
17661SOL    HW165042   5.761   2.652   6.850
17661SOL    HW265043   5.756   2.701   6.694
17662SOL     OW65044   5.930   3.170   7.020
17662SOL    HW165045   5.967   3.259   7.049
17662SOL    HW265046   5.838   3.159   7.058
17663SOL     OW65047   7.172   3.563   7.319
17663SOL    HW165048   7.135   3.471   7.308
17663SOL    HW265049   7.144   3.620   7.242
17664SOL     OW65050   6.906   3.107   5.999
17664SOL    HW165051   6.997   3.108   6.040
17664SOL    HW265052   6.913   3.077   5.904
17665SOL     OW65053   7.152   1.864   6.244
17665SOL    HW165054   7.147   1.871   6.144
17665SOL    HW265055   7.192   1.948   6.281
17666SOL     OW65056   6.650   2.514   6.940
17666SOL    HW165057   6.740   2.477   6.964
17666SOL    HW265058   6.661   2.600   6.891
17667SOL     OW65059   6.834   3.270   6.574
17667SOL    HW165060   6.759   3.320   6.618
17667SOL    HW265061   6.854   3.313   6.486
17668SOL     OW65062   6.849   2.262   6.197
17668SOL    HW165063   6.842   2.277   6.099
17668SOL    HW265064   6.940   2.289   6.229
17669SOL     OW65065   6.633   3.301   8.125
17669SOL    HW165066   6.730   3.325   8.134
17669SOL    HW265067   6.601   3.326   8.034
17670SOL     OW65068   7.129   3.156   7.932
17670SOL    HW165069   7.141   3.196   8.023
17670SOL    HW265070   7.219   3.142   7.890
17671SOL     OW65071   7.167   2.383   8.813
17671SOL    HW165072   7.069   2.391   8.833
17671SOL    HW265073   7.219   2.412   8.893
17672SOL     OW65074   5.816   2.116   7.435
17672SOL    HW165075   5.740   2.082   7.379
17672SOL    HW265076   5.863   2.189   7.386
17673SOL     OW65077   6.891   3.376   8.198
17673SOL    HW165078   6.900   3.473   8.220
17673SOL    HW265079   6.982   3.338   8.179
17674SOL     OW65080   6.685   1.920   8.784
17674SOL    HW165081   6.614   1.862   8.822
17674SOL    HW265082   6.679   1.920   8.684
17675SOL     OW65083   6.507   2.748   9.101
17675SOL    HW165084   6.495   2.780   9.007
17675SOL    HW265085   6.422   2.762   9.152
17676SOL     OW65086   6.109   3.335   7.774
17676SOL    HW165087   6.058   3.361   7.856
17676SOL    HW265088   6.184   3.274   7.800
17677SOL     OW65089   6.002   1.935   7.539
17677SOL    HW165090   6.090   1.971   7.507
17677SOL    HW265091   5.929   1.996   7.509
17678SOL     OW65092   7.120   2.922   8.915
17678SOL    HW165093   7.031   2.924   8.870
17678SOL    HW265094   7.190   2.954   8.851
17679SOL     OW65095   6.963   2.902   8.567
17679SOL    HW165096   6.941   2.855   8.652
17679SOL    HW265097   6.983   2.998   8.585
17680SOL     OW65098   6.521   3.236   8.844
17680SOL    HW165099   6.422   3.249   8.847
17680SOL    HW265100   6.562   3.299   8.778
17681SOL     OW65101   6.025   3.095   8.087
17681SOL    HW165102   5.975   3.045   8.158
17681SOL    HW265103   6.122   3.071   8.091
17682SOL     OW65104   6.298   2.472   7.964
17682SOL    HW165105   6.326   2.551   7.908
17682SOL    HW265106   6.266   2.399   7.904
17683SOL     OW65107   6.832   2.375   9.156
17683SOL    HW165108   6.929   2.358   9.175
17683SOL    HW265109   6.779   2.293   9.174
17684SOL     OW65110   5.966   3.235   7.550
17684SOL    HW165111   6.021   3.239   7.466
17684SOL    HW265112   6.013   3.286   7.622
17685SOL     OW65113   6.046   2.191   8.403
17685SOL    HW165114   6.107   2.270   8.402
17685SOL    HW265115   6.093   2.112   8.365
17686SOL     OW65116   5.883   2.617   7.906
17686SOL    HW165117   5.913   2.647   7.997
17686SOL    HW265118   5.786   2.594   7.908
17687SOL     OW65119   6.382   3.588   8.033
17687SOL    HW165120   6.430   3.523   7.974
17687SOL    HW265121   6.436   3.672   8.041
17688SOL     OW65122   7.334   3.439   7.775
17688SOL    HW165123   7.424   3.403   7.753
17688SOL    HW265124   7.300   3.492   7.697
17689SOL     OW65125   7.148   2.146   8.514
17689SOL    HW165126   7.194   2.234   8.520
17689SOL    HW265127   7.049   2.159   8.522
17690SOL     OW65128   6.627   2.245   7.674
17690SOL    HW165129   6.683   2.327   7.691
17690SOL    HW265130   6.617   2.194   7.759
17691SOL     OW65131   5.696   2.853   8.965
17691SOL    HW165132   5.790   2.885   8.978
17691SOL    HW265133   5.659   2.821   9.052
17692SOL     OW65134   6.040   2.539   7.445
17692SOL    HW165135   6.024   2.637   7.458
17692SOL    HW265136   6.108   2.525   7.373
17693SOL     OW65137   6.156   3.529   8.172
17693SOL    HW165138   6.231   3.565   8.117
17693SOL    HW265139   6.106   3.461   8.118
17694SOL     OW65140   7.163   3.275   8.188
17694SOL    HW165141   7.169   3.302   8.284
17694SOL    HW265142   7.219   3.337   8.133
17695SOL     OW65143   5.857   3.115   7.864
17695SOL    HW165144   5.911   3.112   7.948
17695SOL    HW265145   5.905   3.065   7.792
17696SOL     OW65146   6.741   2.196   7.432
17696SOL    HW165147   6.797   2.113   7.432
17696SOL    HW265148   6.703   2.210   7.524
17697SOL     OW65149   5.907   2.382   8.662
17697SOL    HW165150   5.896   2.283   8.648
17697SOL    HW265151   5.838   2.430   8.609
17698SOL     OW65152   5.943   2.161   7.872
17698SOL    HW165153   5.944   2.225   7.949
17698SOL    HW265154   5.875   2.191   7.805
17699SOL     OW65155   7.082   3.572   8.731
17699SOL    HW165156   7.009   3.573   8.662
17699SOL    HW265157   7.171   3.570   8.684
17700SOL     OW65158   7.269   2.386   8.562
17700SOL    HW165159   7.368   2.400   8.560
17700SOL    HW265160   7.237   2.392   8.657
17701SOL     OW65161   7.331   3.562   8.590
17701SOL    HW165162   7.374   3.558   8.681
17701SOL    HW265163   7.401   3.556   8.520
17702SOL     OW65164   6.485   2.309   8.095
17702SOL    HW165165   6.553   2.350   8.157
17702SOL    HW265166   6.431   2.382   8.053
17703SOL     OW65167   6.755   2.833   7.545
17703SOL    HW165168   6.770   2.799   7.638
17703SOL    HW265169   6.728   2.756   7.486
17704SOL     OW65170   6.675   2.155   9.204
17704SOL    HW165171   6.680   2.123   9.298
17704SOL    HW265172   6.579   2.162   9.176
17705SOL     OW65173   7.228   2.502   7.692
17705SOL    HW165174   7.186   2.464   7.609
17705SOL    HW265175   7.228   2.431   7.763
17706SOL     OW65176   6.320   1.863   9.091
17706SOL    HW165177   6.304   1.766   9.111
17706SOL    HW265178   6.331   1.913   9.177
17707SOL     OW65179   7.143   2.492   8.339
17707SOL    HW165180   7.131   2.591   8.348
17707SOL    HW265181   7.180   2.456   8.425
17708SOL     OW65182   6.620   3.201   9.110
17708SOL    HW165183   6.661   3.109   9.107
17708SOL    HW265184   6.573   3.219   9.024
17709SOL     OW65185   6.288   3.018   9.083
17709SOL    HW165186   6.227   3.094   9.103
17709SOL    HW265187   6.278   2.947   9.154
17710SOL     OW65188   7.312   1.992   9.164
17710SOL    HW165189   7.348   2.011   9.255
17710SOL    HW265190   7.286   1.896   9.158
17711SOL     OW65191   5.619   2.573   7.964
17711SOL    HW165192   5.615   2.506   8.038
17711SOL    HW265193   5.594   2.663   8.000
17712SOL     OW65194   5.843   2.065   8.251
17712SOL    HW165195   5.910   2.119   8.303
17712SOL    HW265196   5.882   1.975   8.230
17713SOL     OW65197   5.892   2.102   8.615
17713SOL    HW165198   5.863   2.007   8.603
17713SOL    HW265199   5.949   2.129   8.538
17714SOL     OW65200   6.560   2.650   8.238
17714SOL    HW165201   6.602   2.687   8.155
17714SOL    HW265202   6.600   2.561   8.258
17715SOL     OW65203   5.743   3.368   7.773
17715SOL    HW165204   5.781   3.277   7.790
17715SOL    HW265205   5.793   3.411   7.698
17716SOL     OW65206   6.982   3.165   8.632
17716SOL    HW165207   6.938   3.215   8.557
17716SOL    HW265208   6.921   3.164   8.712
17717SOL     OW65209   5.737   3.463   8.035
17717SOL    HW165210   5.643   3.476   8.065
17717SOL    HW265211   5.739   3.444   7.937
17718SOL     OW65212   7.246   3.224   8.669
17718SOL    HW165213   7.267   3.252   8.762
17718SOL    HW265214   7.149   3.202   8.662
17719SOL     OW65215   6.024   2.808   7.466
17719SOL    HW165216   5.998   2.858   7.384
17719SOL    HW265217   6.011   2.866   7.546
17720SOL     OW65218   5.630   2.651   7.601
17720SOL    HW165219   5.712   2.596   7.615
17720SOL    HW265220   5.554   2.612   7.653
17721SOL     OW65221   7.109   2.740   7.785
17721SOL    HW165222   7.151   2.652   7.760
17721SOL    HW265223   7.139   2.810   7.721
17722SOL     OW65224   6.470   3.584   8.502
17722SOL    HW165225   6.475   3.524   8.422
17722SOL    HW265226   6.374   3.601   8.525
17723SOL     OW65227   6.300   2.781   7.456
17723SOL    HW165228   6.336   2.695   7.493
17723SOL    HW265229   6.200   2.777   7.456
17724SOL     OW65230   6.917   2.316   7.859
17724SOL    HW165231   6.876   2.370   7.785
17724SOL    HW265232   7.016   2.309   7.844
17725SOL     OW65233   5.891   2.526   8.892
17725SOL    HW165234   5.895   2.458   8.818
17725SOL    HW265235   5.831   2.493   8.965
17726SOL     OW65236   5.725   2.132   8.838
17726SOL    HW165237   5.792   2.124   8.764
17726SOL    HW265238   5.633   2.118   8.802
17727SOL     OW65239   6.529   2.790   8.472
17727SOL    HW165240   6.525   2.738   8.387
17727SOL    HW265241   6.465   2.751   8.538
17728SOL     OW65242   7.214   2.289   7.885
17728SOL    HW165243   7.309   2.257   7.886
17728SOL    HW265244   7.180   2.295   7.978
17729SOL     OW65245   6.454   3.435   8.280
17729SOL    HW165246   6.522   3.382   8.229
17729SOL    HW265247   6.384   3.469   8.217
17730SOL     OW65248   6.367   2.250   7.597
17730SOL    HW165249   6.308   2.241   7.678
17730SOL    HW265250   6.462   2.244   7.625
17731SOL     OW65251   6.509   3.164   7.521
17731SOL    HW165252   6.562   3.146   7.604
17731SOL    HW265253   6.570   3.160   7.441
17732SOL     OW65254   7.296   3.458   8.040
17732SOL    HW165255   7.239   3.537   8.062
17732SOL    HW265256   7.304   3.449   7.941
17733SOL     OW65257   6.705   2.760   8.024
17733SOL    HW165258   6.772   2.805   8.082
17733SOL    HW265259   6.637   2.827   7.993
17734SOL     OW65260   6.382   3.496   8.997
17734SOL    HW165261   6.335   3.438   8.929
17734SOL    HW265262   6.389   3.445   9.083
17735SOL     OW65263   6.900   2.840   8.206
17735SOL    HW165264   6.966   2.791   8.263
17735SOL    HW265265   6.837   2.892   8.265
17736SOL     OW65266   5.880   2.954   8.273
17736SOL    HW165267   5.788   2.993   8.264
17736SOL    HW265268   5.897   2.933   8.369
17737SOL     OW65269   6.480   2.890   7.922
17737SOL    HW165270   6.441   2.812   7.873
17737SOL    HW265271   6.415   2.922   7.991
17738SOL     OW65272   6.805   3.181   8.833
17738SOL    HW165273   6.842   3.267   8.867
17738SOL    HW265274   6.705   3.180   8.845
17739SOL     OW65275   5.561   2.163   7.842
17739SOL    HW165276   5.633   2.191   7.778
17739SOL    HW265277   5.597   2.164   7.935
17740SOL     OW65278   7.236   3.615   7.582
17740SOL    HW165279   7.314   3.678   7.578
17740SOL    HW265280   7.209   3.590   7.489
17741SOL     OW65281   6.400   2.681   8.714
17741SOL    HW165282   6.405   2.764   8.770
17741SOL    HW265283   6.466   2.614   8.749
17742SOL     OW65284   5.609   3.700   8.790
17742SOL    HW165285   5.553   3.783   8.782
17742SOL    HW265286   5.594   3.659   8.880
17743SOL     OW65287   6.352   2.680   7.793
17743SOL    HW165288   6.256   2.708   7.784
17743SOL    HW265289   6.382   2.639   7.707
17744SOL     OW65290   5.856   2.395   8.293
17744SOL    HW165291   5.905   2.377   8.209
17744SOL    HW265292   5.897   2.342   8.368
17745SOL     OW65293   5.861   3.574   7.599
17745SOL    HW165294   5.944   3.609   7.556
17745SOL    HW265295   5.851   3.615   7.689
17746SOL     OW65296   6.879   3.551   8.536
17746SOL    HW165297   6.902   3.600   8.452
17746SOL    HW265298   6.867   3.454   8.516
17747SOL     OW65299   5.615   3.056   8.325
17747SOL    HW165300   5.527   3.056   8.276
17747SOL    HW265301   5.613   2.985   8.396
17748SOL     OW65302   6.343   1.948   7.837
17748SOL    HW165303   6.302   1.881   7.775
17748SOL    HW265304   6.292   2.034   7.831
17749SOL     OW65305   5.595   3.016   7.888
17749SOL    HW165306   5.682   3.064   7.898
17749SOL    HW265307   5.586   2.982   7.794
17750SOL     OW65308   7.112   2.111   8.998
17750SOL    HW165309   7.097   2.196   9.049
17750SOL    HW265310   7.175   2.052   9.048
17751SOL     OW65311   6.711   2.151   8.359
17751SOL    HW165312   6.762   2.153   8.273
17751SOL    HW265313   6.776   2.155   8.435
17752SOL     OW65314   7.046   1.809   9.005
17752SOL    HW165315   7.051   1.810   8.905
17752SOL    HW265316   6.970   1.866   9.035
17753SOL     OW65317   6.244   2.177   8.105
17753SOL    HW165318   6.225   2.102   8.169
17753SOL    HW265319   6.334   2.215   8.125
17754SOL     OW65320   6.134   3.254   9.142
17754SOL    HW165321   6.086   3.317   9.081
17754SOL    HW265322   6.223   3.293   9.167
17755SOL     OW65323   5.952   2.953   8.983
17755SOL    HW165324   6.029   2.922   8.928
17755SOL    HW265325   5.935   3.049   8.965
17756SOL     OW65326   5.679   3.262   8.499
17756SOL    HW165327   5.660   3.199   8.424
17756SOL    HW265328   5.601   3.262   8.563
17757SOL     OW65329   6.687   2.412   8.280
17757SOL    HW165330   6.762   2.395   8.216
17757SOL    HW265331   6.667   2.328   8.331
17758SOL     OW65332   7.299   2.475   9.045
17758SOL    HW165333   7.296   2.560   8.992
17758SOL    HW265334   7.393   2.461   9.078
17759SOL     OW65335   6.884   2.204   8.569
17759SOL    HW165336   6.859   2.300   8.564
17759SOL    HW265337   6.878   2.172   8.663
17760SOL     OW65338   7.107   2.327   9.174
17760SOL    HW165339   7.173   2.385   9.127
17760SOL    HW265340   7.146   2.295   9.260
17761SOL     OW65341   6.832   2.715   7.784
17761SOL    HW165342   6.787   2.726   7.873
17761SOL    HW265343   6.930   2.729   7.795
17762SOL     OW65344   7.123   2.838   8.038
17762SOL    HW165345   7.114   2.801   7.945
17762SOL    HW265346   7.033   2.842   8.081
17763SOL     OW65347   7.293   2.695   8.888
17763SOL    HW165348   7.223   2.767   8.879
17763SOL    HW265349   7.384   2.737   8.885
17764SOL     OW65350   7.190   2.184   7.599
17764SOL    HW165351   7.191   2.180   7.699
17764SOL    HW265352   7.207   2.093   7.561
17765SOL     OW65353   6.250   3.343   8.810
17765SOL    HW165354   6.188   3.418   8.787
17765SOL    HW265355   6.222   3.261   8.759
17766SOL     OW65356   5.702   2.159   9.107
17766SOL    HW165357   5.713   2.150   9.008
17766SOL    HW265358   5.608   2.136   9.132
17767SOL     OW65359   5.577   3.572   9.031
17767SOL    HW165360   5.663   3.585   9.079
17767SOL    HW265361   5.501   3.583   9.095
17768SOL     OW65362   5.647   2.170   8.099
17768SOL    HW165363   5.636   2.265   8.129
17768SOL    HW265364   5.722   2.127   8.150
17769SOL     OW65365   6.920   3.419   8.904
17769SOL    HW165366   6.854   3.487   8.935
17769SOL    HW265367   6.987   3.461   8.844
17770SOL     OW65368   5.857   2.501   7.650
17770SOL    HW165369   5.931   2.510   7.583
17770SOL    HW265370   5.886   2.539   7.738
17771SOL     OW65371   7.243   2.050   8.758
17771SOL    HW165372   7.191   2.088   8.834
17771SOL    HW265373   7.208   2.088   8.672
17772SOL     OW65374   5.889   3.613   8.218
17772SOL    HW165375   5.834   3.572   8.144
17772SOL    HW265376   5.986   3.595   8.201
17773SOL     OW65377   5.896   3.156   8.635
17773SOL    HW165378   5.889   3.178   8.732
17773SOL    HW265379   5.824   3.203   8.584
17774SOL     OW65380   6.693   3.450   9.202
17774SOL    HW165381   6.663   3.358   9.176
17774SOL    HW265382   6.710   3.503   9.120
17775SOL     OW65383   6.307   3.164   7.863
17775SOL    HW165384   6.324   3.102   7.786
17775SOL    HW265385   6.306   3.113   7.948
17776SOL     OW65386   5.943   2.699   8.160
17776SOL    HW165387   5.938   2.794   8.192
17776SOL    HW265388   6.030   2.659   8.187
17777SOL     OW65389   5.767   2.242   7.678
17777SOL    HW165390   5.781   2.192   7.593
17777SOL    HW265391   5.791   2.339   7.664
17778SOL     OW65392   5.605   2.421   8.189
17778SOL    HW165393   5.534   2.472   8.238
17778SOL    HW265394   5.690   2.424   8.242
17779SOL     OW65395   6.037   3.000   7.669
17779SOL    HW165396   6.136   3.006   7.665
17779SOL    HW265397   5.997   3.079   7.622
17780SOL     OW65398   6.689   2.572   7.421
17780SOL    HW165399   6.628   2.624   7.360
17780SOL    HW265400   6.756   2.522   7.367
17781SOL     OW65401   6.421   2.549   7.556
17781SOL    HW165402   6.514   2.548   7.519
17781SOL    HW265403   6.385   2.456   7.557
17782SOL     OW65404   6.893   2.385   8.886
17782SOL    HW165405   6.871   2.396   8.983
17782SOL    HW265406   6.880   2.290   8.860
17783SOL     OW65407   5.905   2.900   8.541
17783SOL    HW165408   5.897   2.834   8.617
17783SOL    HW265409   5.910   2.992   8.578
17784SOL     OW65410   7.203   2.908   7.590
17784SOL    HW165411   7.299   2.934   7.602
17784SOL    HW265412   7.185   2.893   7.493
17785SOL     OW65413   6.197   2.497   8.615
17785SOL    HW165414   6.247   2.568   8.664
17785SOL    HW265415   6.108   2.483   8.658
17786SOL     OW65416   6.432   2.915   8.881
17786SOL    HW165417   6.488   2.983   8.834
17786SOL    HW265418   6.387   2.957   8.959
17787SOL     OW65419   6.703   2.945   9.102
17787SOL    HW165420   6.637   2.870   9.113
17787SOL    HW265421   6.796   2.910   9.115
17788SOL     OW65422   6.560   2.117   7.901
17788SOL    HW165423   6.538   2.172   7.981
17788SOL    HW265424   6.495   2.042   7.894
17789SOL     OW65425   6.741   3.609   8.984
17789SOL    HW165426   6.664   3.632   8.925
17789SOL    HW265427   6.778   3.692   9.027
17790SOL     OW65428   6.175   1.985   8.289
17790SOL    HW165429   6.111   1.921   8.247
17790SOL    HW265430   6.231   1.936   8.355
17791SOL     OW65431   5.850   3.678   8.655
17791SOL    HW165432   5.822   3.626   8.574
17791SOL    HW265433   5.771   3.690   8.716
17792SOL     OW65434   6.527   3.087   8.256
17792SOL    HW165435   6.565   3.164   8.206
17792SOL    HW265436   6.600   3.036   8.301
17793SOL     OW65437   6.197   2.828   8.305
17793SOL    HW165438   6.216   2.736   8.272
17793SOL    HW265439   6.130   2.824   8.379
17794SOL     OW65440   5.625   2.855   8.507
17794SOL    HW165441   5.718   2.867   8.542
17794SOL    HW265442   5.626   2.786   8.435
17795SOL     OW65443   5.870   1.901   7.938
17795SOL    HW165444   5.901   1.994   7.917
17795SOL    HW265445   5.770   1.897   7.931
17796SOL     OW65446   6.195   2.480   9.151
17796SOL    HW165447   6.190   2.539   9.071
17796SOL    HW265448   6.277   2.503   9.204
17797SOL     OW65449   5.616   2.934   7.624
17797SOL    HW165450   5.640   2.838   7.609
17797SOL    HW265451   5.663   2.991   7.556
17798SOL     OW65452   7.263   1.966   8.330
17798SOL    HW165453   7.215   2.029   8.391
17798SOL    HW265454   7.325   1.908   8.383
17799SOL     OW65455   6.305   3.055   8.433
17799SOL    HW165456   6.275   2.968   8.392
17799SOL    HW265457   6.387   3.087   8.387
17800SOL     OW65458   6.778   2.475   7.669
17800SOL    HW165459   6.796   2.558   7.721
17800SOL    HW265460   6.750   2.499   7.576
17801SOL     OW65461   7.060   3.280   9.101
17801SOL    HW165462   7.017   3.200   9.143
17801SOL    HW265463   6.997   3.320   9.034
17802SOL     OW65464   5.803   2.733   8.738
17802SOL    HW165465   5.845   2.658   8.789
17802SOL    HW265466   5.749   2.790   8.801
17803SOL     OW65467   6.331   3.345   7.421
17803SOL    HW165468   6.306   3.411   7.493
17803SOL    HW265469   6.401   3.283   7.457
17804SOL     OW65470   6.187   3.589   8.441
17804SOL    HW165471   6.175   3.554   8.348
17804SOL    HW265472   6.119   3.546   8.501
17805SOL     OW65473   6.304   3.004   8.111
17805SOL    HW165474   6.382   3.044   8.159
17805SOL    HW265475   6.261   2.935   8.170
17806SOL     OW65476   6.503   3.376   7.889
17806SOL    HW165477   6.565   3.383   7.811
17806SOL    HW265478   6.439   3.301   7.874
17807SOL     OW65479   5.690   2.694   8.291
17807SOL    HW165480   5.779   2.675   8.251
17807SOL    HW265481   5.630   2.734   8.221
17808SOL     OW65482   5.575   2.762   9.185
17808SOL    HW165483   5.475   2.768   9.178
17808SOL    HW265484   5.599   2.702   9.261
17809SOL     OW65485   6.516   3.672   8.833
17809SOL    HW165486   6.475   3.599   8.889
17809SOL    HW265487   6.444   3.731   8.798
17810SOL     OW65488   6.733   2.951   8.399
17810SOL    HW165489   6.809   2.944   8.464
17810SOL    HW265490   6.657   2.894   8.431
17811SOL     OW65491   6.117   2.220   9.159
17811SOL    HW165492   6.166   2.171   9.087
17811SOL    HW265493   6.143   2.316   9.159
17812SOL     OW65494   6.090   2.750   7.783
17812SOL    HW165495   6.060   2.841   7.754
17812SOL    HW265496   6.015   2.702   7.827
17813SOL     OW65497   7.125   2.775   8.387
17813SOL    HW165498   7.169   2.848   8.334
17813SOL    HW265499   7.068   2.815   8.458
17814SOL     OW65500   6.878   2.116   8.831
17814SOL    HW165501   6.951   2.092   8.895
17814SOL    HW265502   6.811   2.042   8.828
17815SOL     OW65503   5.604   1.891   7.891
17815SOL    HW165504   5.539   1.819   7.865
17815SOL    HW265505   5.563   1.980   7.869
17816SOL     OW65506   6.833   1.937   9.130
17816SOL    HW165507   6.864   1.917   9.223
17816SOL    HW265508   6.778   2.020   9.130
17817SOL     OW65509   5.984   3.444   9.000
17817SOL    HW165510   5.927   3.504   9.055
17817SOL    HW265511   6.023   3.496   8.923
17818SOL     OW65512   7.286   3.264   8.941
17818SOL    HW165513   7.341   3.339   8.978
17818SOL    HW265514   7.203   3.253   8.994
17819SOL     OW65515   5.995   3.361   8.029
17819SOL    HW165516   6.004   3.266   8.056
17819SOL    HW265517   5.900   3.390   8.037
17820SOL     OW65518   6.622   3.416   8.665
17820SOL    HW165519   6.559   3.476   8.616
17820SOL    HW265520   6.716   3.448   8.651
17821SOL     OW65521   5.823   3.617   9.155
17821SOL    HW165522   5.855   3.711   9.143
17821SOL    HW265523   5.822   3.594   9.253
17822SOL     OW65524   5.652   3.130   9.027
17822SOL    HW165525   5.632   3.038   8.993
17822SOL    HW265526   5.583   3.194   8.994
17823SOL     OW65527   5.749   3.532   8.446
17823SOL    HW165528   5.735   3.433   8.449
17823SOL    HW265529   5.795   3.556   8.360
17824SOL     OW65530   6.434   2.149   8.413
17824SOL    HW165531   6.532   2.144   8.391
17824SOL    HW265532   6.400   2.057   8.433
17825SOL     OW65533   6.608   3.087   7.770
17825SOL    HW165534   6.699   3.101   7.809
17825SOL    HW265535   6.561   3.014   7.820
17826SOL     OW65536   7.149   2.281   8.162
17826SOL    HW165537   7.148   2.364   8.218
17826SOL    HW265538   7.202   2.210   8.208
17827SOL     OW65539   6.308   3.008   7.624
17827SOL    HW165540   6.378   3.070   7.588
17827SOL    HW265541   6.317   2.919   7.580
17828SOL     OW65542   6.254   2.034   7.456
17828SOL    HW165543   6.302   1.950   7.481
17828SOL    HW265544   6.293   2.111   7.507
17829SOL     OW65545   6.019   2.338   8.077
17829SOL    HW165546   6.096   2.276   8.096
17829SOL    HW265547   6.054   2.431   8.064
17830SOL     OW65548   6.161   2.895   8.814
17830SOL    HW165549   6.255   2.892   8.848
17830SOL    HW265550   6.150   2.971   8.751
17831SOL     OW65551   7.311   2.968   8.733
17831SOL    HW165552   7.304   3.062   8.700
17831SOL    HW265553   7.347   2.910   8.660
17832SOL     OW65554   5.740   3.102   7.443
17832SOL    HW165555   5.722   3.130   7.349
17832SOL    HW265556   5.812   3.160   7.482
17833SOL     OW65557   6.235   3.521   7.616
17833SOL    HW165558   6.167   3.583   7.578
17833SOL    HW265559   6.192   3.461   7.683
17834SOL     OW65560   6.084   3.578   8.772
17834SOL    HW165561   6.150   3.653   8.775
17834SOL    HW265562   5.999   3.610   8.731
17835SOL     OW65563   5.743   2.435   9.112
17835SOL    HW165564   5.741   2.335   9.120
17835SOL    HW265565   5.811   2.472   9.175
17836SOL     OW65566   7.193   3.367   8.441
17836SOL    HW165567   7.227   3.457   8.466
17836SOL    HW265568   7.207   3.303   8.517
17837SOL     OW65569   5.546   2.811   8.075
17837SOL    HW165570   5.575   2.887   8.016
17837SOL    HW265571   5.447   2.809   8.080
17838SOL     OW65572   6.137   2.638   8.934
17838SOL    HW165573   6.046   2.599   8.922
17838SOL    HW265574   6.144   2.725   8.885
17839SOL     OW65575   7.217   2.999   8.236
17839SOL    HW165576   7.193   3.095   8.225
17839SOL    HW265577   7.188   2.948   8.155
17840SOL     OW65578   6.257   2.368   8.386
17840SOL    HW165579   6.328   2.298   8.395
17840SOL    HW265580   6.247   2.416   8.473
17841SOL     OW65581   6.169   3.126   8.658
17841SOL    HW165582   6.073   3.143   8.633
17841SOL    HW265583   6.221   3.106   8.575
17842SOL     OW65584   5.718   2.549   8.542
17842SOL    HW165585   5.738   2.623   8.607
17842SOL    HW265586   5.722   2.584   8.449
17843SOL     OW65587   5.880   3.210   8.903
17843SOL    HW165588   5.919   3.295   8.936
17843SOL    HW265589   5.794   3.191   8.951
17844SOL     OW65590   7.165   3.520   9.198
17844SOL    HW165591   7.129   3.428   9.183
17844SOL    HW265592   7.133   3.581   9.126
17845SOL     OW65593   6.872   3.097   7.855
17845SOL    HW165594   6.962   3.114   7.895
17845SOL    HW265595   6.882   3.074   7.758
17846SOL     OW65596   6.215   2.203   7.836
17846SOL    HW165597   6.117   2.186   7.822
17846SOL    HW265598   6.237   2.192   7.933
17847SOL     OW65599   7.241   1.847   8.078
17847SOL    HW165600   7.144   1.861   8.057
17847SOL    HW265601   7.261   1.887   8.167
17848SOL     OW65602   6.191   2.568   8.203
17848SOL    HW165603   6.212   2.500   8.273
17848SOL    HW265604   6.240   2.546   8.119
17849SOL     OW65605   6.822   3.297   8.453
17849SOL    HW165606   6.727   3.266   8.462
17849SOL    HW265607   6.843   3.312   8.356
17850SOL     OW65608   6.872   2.261   8.130
17850SOL    HW165609   6.862   2.270   8.031
17850SOL    HW265610   6.970   2.264   8.153
17851SOL     OW65611   6.668   3.253   9.815
17851SOL    HW165612   6.707   3.267   9.906
17851SOL    HW265613   6.582   3.303   9.807
17852SOL     OW65614   7.207   3.023   9.821
17852SOL    HW165615   7.231   3.085   9.895
17852SOL    HW265616   7.286   3.007   9.763
17853SOL     OW65617   5.908   2.094   9.269
17853SOL    HW165618   5.828   2.113   9.212
17853SOL    HW265619   5.988   2.142   9.233
17854SOL     OW65620   6.092   3.364   9.586
17854SOL    HW165621   6.097   3.434   9.657
17854SOL    HW265622   6.138   3.281   9.619
17855SOL     OW65623   6.072   1.882   9.345
17855SOL    HW165624   6.168   1.910   9.340
17855SOL    HW265625   6.013   1.960   9.323
17856SOL     OW65626   5.932   3.033   9.914
17856SOL    HW165627   5.843   3.042   9.958
17856SOL    HW265628   6.004   3.031   9.983
17857SOL     OW65629   6.313   2.500   9.717
17857SOL    HW165630   6.316   2.594   9.682
17857SOL    HW265631   6.342   2.437   9.646
17858SOL     OW65632   5.972   3.243   9.363
17858SOL    HW165633   6.031   3.252   9.282
17858SOL    HW265634   6.011   3.297   9.438
17859SOL     OW65635   5.849   2.649   9.746
17859SOL    HW165636   5.876   2.593   9.824
17859SOL    HW265637   5.762   2.695   9.765
17860SOL     OW65638   6.200   3.521   9.797
17860SOL    HW165639   6.282   3.464   9.800
17860SOL    HW265640   6.218   3.602   9.741
17861SOL     OW65641   7.308   3.441   9.631
17861SOL    HW165642   7.401   3.412   9.609
17861SOL    HW265643   7.278   3.508   9.564
17862SOL     OW65644   6.594   2.189   9.677
17862SOL    HW165645   6.584   2.265   9.742
17862SOL    HW265646   6.615   2.105   9.728
17863SOL     OW65647   5.953   2.557   9.258
17863SOL    HW165648   5.955   2.656   9.246
17863SOL    HW265649   6.037   2.518   9.221
17864SOL     OW65650   7.306   3.203   0.012
17864SOL    HW165651   7.275   3.205   0.107
17864SOL    HW265652   7.297   3.294   9.972
17865SOL     OW65653   5.862   3.129   9.667
17865SOL    HW165654   5.895   3.103   9.758
17865SOL    HW265655   5.909   3.075   9.598
17866SOL     OW65656   6.692   2.049   9.454
17866SOL    HW165657   6.780   2.004   9.469
17866SOL    HW265658   6.669   2.105   9.534
17867SOL     OW65659   5.980   2.147   9.710
17867SOL    HW165660   6.017   2.226   9.760
17867SOL    HW265661   5.919   2.179   9.638
17868SOL     OW65662   7.387   3.543   0.325
17868SOL    HW165663   7.402   3.628   0.375
17868SOL    HW265664   7.475   3.495   0.314
17869SOL     OW65665   6.521   2.383   9.862
17869SOL    HW165666   6.593   2.441   9.901
17869SOL    HW265667   6.448   2.441   9.827
17870SOL     OW65668   6.769   2.793   9.404
17870SOL    HW165669   6.806   2.745   9.483
17870SOL    HW265670   6.721   2.728   9.344
17871SOL     OW65671   7.347   2.484   9.513
17871SOL    HW165672   7.313   2.406   9.461
17871SOL    HW265673   7.378   2.453   9.603
17872SOL     OW65674   6.544   3.637   9.356
17872SOL    HW165675   6.577   3.581   9.280
17872SOL    HW265676   6.561   3.590   9.442
17873SOL     OW65677   5.582   2.480   9.787
17873SOL    HW165678   5.582   2.446   9.882
17873SOL    HW265679   5.594   2.579   9.787
17874SOL     OW65680   5.755   3.378   9.592
17874SOL    HW165681   5.793   3.287   9.605
17874SOL    HW265682   5.806   3.426   9.520
17875SOL     OW65683   5.784   3.450   9.856
17875SOL    HW165684   5.692   3.465   9.892
17875SOL    HW265685   5.778   3.423   9.760
17876SOL     OW65686   5.994   2.829   9.228
17876SOL    HW165687   5.973   2.873   9.140
17876SOL    HW265688   5.967   2.890   9.303
17877SOL     OW65689   5.624   2.629   9.417
17877SOL    HW165690   5.703   2.572   9.441
17877SOL    HW265691   5.542   2.591   9.460
17878SOL     OW65692   7.162   2.675   9.582
17878SOL    HW165693   7.227   2.605   9.554
17878SOL    HW265694   7.176   2.758   9.528
17879SOL     OW65695   6.266   2.779   9.234
17879SOL    HW165696   6.288   2.702   9.294
17879SOL    HW265697   6.167   2.790   9.229
17880SOL     OW65698   6.913   2.241   9.642
17880SOL    HW165699   6.867   2.308   9.585
17880SOL    HW265700   7.012   2.255   9.636
17881SOL     OW65701   7.188   2.250   9.674
17881SOL    HW165702   7.279   2.209   9.680
17881SOL    HW265703   7.167   2.296   9.761
17882SOL     OW65704   6.394   2.314   9.527
17882SOL    HW165705   6.323   2.245   9.541
17882SOL    HW265706   6.481   2.280   9.564
17883SOL     OW65707   6.488   3.145   9.358
17883SOL    HW165708   6.545   3.137   9.439
17883SOL    HW265709   6.545   3.147   9.276
17884SOL     OW65710   7.290   3.452   9.902
17884SOL    HW165711   7.246   3.537   9.931
17884SOL    HW265712   7.286   3.445   9.802
17885SOL     OW65713   6.927   2.756   9.965
17885SOL    HW165714   6.979   2.790   0.044
17885SOL    HW265715   6.922   2.828   9.896
17886SOL     OW65716   5.606   2.228   9.672
17886SOL    HW165717   5.682   2.219   9.607
17886SOL    HW265718   5.611   2.317   9.717
17887SOL     OW65719   7.223   3.635   9.448
17887SOL    HW165720   7.303   3.693   9.434
17887SOL    HW265721   7.198   3.592   9.361
17888SOL     OW65722   6.309   2.719   9.544
17888SOL    HW165723   6.209   2.719   9.550
17888SOL    HW265724   6.338   2.650   9.478
17889SOL     OW65725   5.841   3.645   9.436
17889SOL    HW165726   5.933   3.669   9.405
17889SOL    HW265727   5.822   3.690   9.524
17890SOL     OW65728   6.333   1.839   9.663
17890SOL    HW165729   6.298   1.776   9.594
17890SOL    HW265730   6.298   1.931   9.646
17891SOL     OW65731   5.613   3.004   9.697
17891SOL    HW165732   5.691   3.066   9.706
17891SOL    HW265733   5.609   2.968   9.604
17892SOL     OW65734   6.336   2.167   9.875
17892SOL    HW165735   6.345   2.093   9.942
17892SOL    HW265736   6.412   2.232   9.887
17893SOL     OW65737   6.893   2.680   9.617
17893SOL    HW165738   6.879   2.744   9.692
17893SOL    HW265739   6.990   2.667   9.602
17894SOL     OW65740   7.176   2.679   9.854
17894SOL    HW165741   7.168   2.678   9.755
17894SOL    HW265742   7.085   2.678   9.895
17895SOL     OW65743   7.236   2.246   9.406
17895SOL    HW165744   7.198   2.248   9.499
17895SOL    HW265745   7.298   2.168   9.397
17896SOL     OW65746   5.845   2.487   9.501
17896SOL    HW165747   5.899   2.520   9.423
17896SOL    HW265748   5.864   2.544   9.581
17897SOL     OW65749   5.962   3.661   9.848
17897SOL    HW165750   5.894   3.589   9.864
17897SOL    HW265751   6.053   3.620   9.842
17898SOL     OW65752   6.241   3.160   9.695
17898SOL    HW165753   6.267   3.097   9.621
17898SOL    HW265754   6.206   3.108   9.772
17899SOL     OW65755   5.818   2.218   9.501
17899SOL    HW165756   5.851   2.172   9.419
17899SOL    HW265757   5.827   2.317   9.491
17900SOL     OW65758   5.564   2.405   0.046
17900SOL    HW165759   5.577   2.492   0.094
17900SOL    HW265760   5.594   2.330   0.104
17901SOL     OW65761   6.020   2.997   9.470
17901SOL    HW165762   6.120   2.993   9.474
17901SOL    HW265763   5.992   3.081   9.423
17902SOL     OW65764   6.657   2.572   9.255
17902SOL    HW165765   6.613   2.630   9.186
17902SOL    HW265766   6.720   2.509   9.209
17903SOL     OW65767   6.393   2.534   9.354
17903SOL    HW165768   6.487   2.548   9.323
17903SOL    HW265769   6.388   2.450   9.408
17904SOL     OW65770   6.927   1.990   9.751
17904SOL    HW165771   6.835   1.966   9.781
17904SOL    HW265772   6.926   2.080   9.707
17905SOL     OW65773   5.611   1.918   9.388
17905SOL    HW165774   5.687   1.853   9.390
17905SOL    HW265775   5.630   1.993   9.452
17906SOL     OW65776   7.202   2.884   9.413
17906SOL    HW165777   7.296   2.918   9.417
17906SOL    HW265778   7.170   2.886   9.319
17907SOL     OW65779   6.662   1.971   9.829
17907SOL    HW165780   6.683   2.013   9.917
17907SOL    HW265781   6.606   1.890   9.843
17908SOL     OW65782   5.830   1.914   9.646
17908SOL    HW165783   5.889   1.987   9.681
17908SOL    HW265784   5.740   1.921   9.688
17909SOL     OW65785   5.641   2.908   9.447
17909SOL    HW165786   5.651   2.811   9.428
17909SOL    HW265787   5.691   2.961   9.379
17910SOL     OW65788   7.249   2.127   0.046
17910SOL    HW165789   7.186   2.133   0.123
17910SOL    HW265790   7.336   2.088   0.077
17911SOL     OW65791   6.799   2.447   9.499
17911SOL    HW165792   6.826   2.527   9.553
17911SOL    HW265793   6.744   2.477   9.421
17912SOL     OW65794   6.368   3.361   9.232
17912SOL    HW165795   6.325   3.422   9.298
17912SOL    HW265796   6.414   3.286   9.280
17913SOL     OW65797   6.426   3.364   9.738
17913SOL    HW165798   6.480   3.390   9.658
17913SOL    HW265799   6.368   3.286   9.715
17914SOL     OW65800   6.039   2.738   9.568
17914SOL    HW165801   6.016   2.828   9.533
17914SOL    HW265802   5.973   2.711   9.639
17915SOL     OW65803   5.574   1.958   9.730
17915SOL    HW165804   5.478   1.933   9.714
17915SOL    HW265805   5.583   2.058   9.726
17916SOL     OW65806   6.019   3.368   9.975
17916SOL    HW165807   6.093   3.413   9.925
17916SOL    HW265808   5.931   3.389   9.930
17917SOL     OW65809   6.628   3.105   9.588
17917SOL    HW165810   6.646   3.160   9.669
17917SOL    HW265811   6.683   3.022   9.591
17918SOL     OW65812   7.153   2.351   9.925
17918SOL    HW165813   7.208   2.430   9.951
17918SOL    HW265814   7.189   2.270   9.971
17919SOL     OW65815   6.293   2.993   9.488
17919SOL    HW165816   6.363   3.039   9.432
17919SOL    HW265817   6.321   2.899   9.504
17920SOL     OW65818   6.338   1.961   9.350
17920SOL    HW165819   6.419   1.904   9.360
17920SOL    HW265820   6.331   2.022   9.429
17921SOL     OW65821   6.127   2.344   9.847
17921SOL    HW165822   6.190   2.273   9.878
17921SOL    HW265823   6.179   2.416   9.800
17922SOL     OW65824   5.774   3.070   9.271
17922SOL    HW165825   5.728   3.095   9.186
17922SOL    HW265826   5.833   3.145   9.300
17923SOL     OW65827   6.220   3.511   9.396
17923SOL    HW165828   6.163   3.589   9.369
17923SOL    HW265829   6.173   3.459   9.468
17924SOL     OW65830   5.592   2.755   9.814
17924SOL    HW165831   5.604   2.845   9.773
17924SOL    HW265832   5.509   2.754   9.869
17925SOL     OW65833   6.957   2.930   9.751
17925SOL    HW165834   7.046   2.964   9.782
17925SOL    HW265835   6.936   2.968   9.661
17926SOL     OW65836   6.242   2.099   9.626
17926SOL    HW165837   6.143   2.102   9.639
17926SOL    HW265838   6.288   2.120   9.712
17927SOL     OW65839   7.160   1.928   9.886
17927SOL    HW165840   7.074   1.946   9.837
17927SOL    HW265841   7.186   2.009   9.939
17928SOL     OW65842   6.883   2.313   9.911
17928SOL    HW165843   6.872   2.284   9.816
17928SOL    HW265844   6.979   2.331   9.930
17929SOL     OW65845   7.188   4.980   0.513
17929SOL    HW165846   7.191   5.076   0.485
17929SOL    HW265847   7.275   4.936   0.492
17930SOL     OW65848   7.172   4.336   1.379
17930SOL    HW165849   7.102   4.290   1.435
17930SOL    HW265850   7.223   4.399   1.437
17931SOL     OW65851   6.885   5.238   0.877
17931SOL    HW165852   6.896   5.338   0.878
17931SOL    HW265853   6.971   5.195   0.853
17932SOL     OW65854   6.706   3.773   1.303
17932SOL    HW165855   6.635   3.715   1.342
17932SOL    HW265856   6.767   3.717   1.246
17933SOL     OW65857   6.555   4.566   1.788
17933SOL    HW165858   6.545   4.498   1.715
17933SOL    HW265859   6.464   4.589   1.824
17934SOL     OW65860   7.109   4.725   1.494
17934SOL    HW165861   7.016   4.755   1.473
17934SOL    HW265862   7.174   4.774   1.435
17935SOL     OW65863   6.972   4.752   1.201
17935SOL    HW165864   6.910   4.744   1.279
17935SOL    HW265865   6.999   4.848   1.189
17936SOL     OW65866   6.522   5.069   1.468
17936SOL    HW165867   6.435   5.115   1.452
17936SOL    HW265868   6.517   4.976   1.431
17937SOL     OW65869   6.036   4.983   0.864
17937SOL    HW165870   5.971   4.909   0.879
17937SOL    HW265871   6.124   4.958   0.904
17938SOL     OW65872   6.300   4.333   0.612
17938SOL    HW165873   6.312   4.390   0.531
17938SOL    HW265874   6.255   4.247   0.587
17939SOL     OW65875   5.909   5.133   0.177
17939SOL    HW165876   5.989   5.135   0.117
17939SOL    HW265877   5.908   5.214   0.234
17940SOL     OW65878   6.099   4.024   1.031
17940SOL    HW165879   6.160   4.104   1.027
17940SOL    HW265880   6.135   3.951   0.973
17941SOL     OW65881   5.852   4.469   0.525
17941SOL    HW165882   5.889   4.495   0.615
17941SOL    HW265883   5.756   4.443   0.535
17942SOL     OW65884   6.375   5.479   0.647
17942SOL    HW165885   6.467   5.472   0.685
17942SOL    HW265886   6.363   5.570   0.607
17943SOL     OW65887   7.194   5.246   0.414
17943SOL    HW165888   7.277   5.286   0.375
17943SOL    HW265889   7.114   5.287   0.371
17944SOL     OW65890   7.223   4.006   1.138
17944SOL    HW165891   7.257   4.100   1.141
17944SOL    HW265892   7.124   4.006   1.132
17945SOL     OW65893   6.616   4.008   0.314
17945SOL    HW165894   6.658   4.098   0.316
17945SOL    HW265895   6.602   3.975   0.407
17946SOL     OW65896   5.691   4.694   1.618
17946SOL    HW165897   5.781   4.734   1.632
17946SOL    HW265898   5.647   4.678   1.707
17947SOL     OW65899   5.954   4.363   0.044
17947SOL    HW165900   6.002   4.448   0.022
17947SOL    HW265901   5.984   4.290   9.981
17948SOL     OW65902   6.233   5.288   0.783
17948SOL    HW165903   6.271   5.355   0.720
17948SOL    HW265904   6.143   5.259   0.750
17949SOL     OW65905   6.568   4.348   1.613
17949SOL    HW165906   6.590   4.271   1.674
17949SOL    HW265907   6.647   4.366   1.554
17950SOL     OW65908   7.140   5.133   0.843
17950SOL    HW165909   7.164   5.173   0.931
17950SOL    HW265910   7.187   5.183   0.770
17951SOL     OW65911   6.749   3.940   0.081
17951SOL    HW165912   6.836   3.909   0.119
17951SOL    HW265913   6.686   3.962   0.156
17952SOL     OW65914   5.945   4.244   1.240
17952SOL    HW165915   5.935   4.145   1.231
17952SOL    HW265916   5.866   4.290   1.199
17953SOL     OW65917   6.970   4.475   1.257
17953SOL    HW165918   6.987   4.570   1.230
17953SOL    HW265919   7.055   4.435   1.291
17954SOL     OW65920   7.103   5.444   1.330
17954SOL    HW165921   7.026   5.451   1.267
17954SOL    HW265922   7.189   5.442   1.278
17955SOL     OW65923   7.309   4.267   1.160
17955SOL    HW165924   7.404   4.295   1.171
17955SOL    HW265925   7.257   4.289   1.243
17956SOL     OW65926   7.359   5.449   1.196
17956SOL    HW165927   7.391   5.499   1.275
17956SOL    HW265928   7.436   5.424   1.137
17957SOL     OW65929   6.515   4.177   0.683
17957SOL    HW165930   6.583   4.222   0.741
17957SOL    HW265931   6.449   4.245   0.651
17958SOL     OW65932   6.634   4.676   0.216
17958SOL    HW165933   6.679   4.607   0.273
17958SOL    HW265934   6.637   4.646   0.120
17959SOL     OW65935   6.592   4.145   1.809
17959SOL    HW165936   6.639   4.087   1.874
17959SOL    HW265937   6.503   4.104   1.786
17960SOL     OW65938   7.215   4.342   0.317
17960SOL    HW165939   7.183   4.256   0.278
17960SOL    HW265940   7.260   4.324   0.405
17961SOL     OW65941   6.648   5.427   0.165
17961SOL    HW165942   6.650   5.359   0.092
17961SOL    HW265943   6.627   5.382   0.252
17962SOL     OW65944   6.340   3.743   1.713
17962SOL    HW165945   6.357   3.648   1.687
17962SOL    HW265946   6.349   3.754   1.812
17963SOL     OW65947   7.237   4.376   0.920
17963SOL    HW165948   7.173   4.452   0.923
17963SOL    HW265949   7.248   4.338   1.012
17964SOL     OW65950   6.600   5.028   1.745
17964SOL    HW165951   6.642   4.938   1.733
17964SOL    HW265952   6.557   5.056   1.659
17965SOL     OW65953   6.242   4.857   1.738
17965SOL    HW165954   6.197   4.946   1.732
17965SOL    HW265955   6.187   4.796   1.795
17966SOL     OW65956   6.936   3.656   0.894
17966SOL    HW165957   6.892   3.746   0.894
17966SOL    HW265958   7.027   3.663   0.854
17967SOL     OW65959   5.595   4.409   0.599
17967SOL    HW165960   5.594   4.336   0.667
17967SOL    HW265961   5.558   4.493   0.639
17968SOL     OW65962   5.880   3.933   0.742
17968SOL    HW165963   5.931   4.019   0.740
17968SOL    HW265964   5.938   3.862   0.783
17969SOL     OW65965   5.912   3.959   1.221
17969SOL    HW165966   5.894   3.862   1.231
17969SOL    HW265967   5.981   3.973   1.150
17970SOL     OW65968   6.603   4.518   1.007
17970SOL    HW165969   6.555   4.586   0.952
17970SOL    HW265970   6.634   4.443   0.948
17971SOL     OW65971   5.657   5.168   0.350
17971SOL    HW165972   5.673   5.086   0.294
17971SOL    HW265973   5.728   5.236   0.330
17972SOL     OW65974   6.986   5.033   1.230
17972SOL    HW165975   6.938   5.059   1.146
17972SOL    HW265976   6.926   5.044   1.308
17973SOL     OW65977   5.708   5.194   0.623
17973SOL    HW165978   5.630   5.242   0.663
17973SOL    HW265979   5.690   5.178   0.525
17974SOL     OW65980   7.258   5.081   1.279
17974SOL    HW165981   7.279   5.124   1.366
17974SOL    HW265982   7.160   5.066   1.271
17975SOL     OW65983   6.086   4.593   9.970
17975SOL    HW165984   6.062   4.638   9.884
17975SOL    HW265985   6.088   4.661   0.043
17976SOL     OW65986   6.501   4.814   1.358
17976SOL    HW165987   6.556   4.733   1.339
17976SOL    HW265988   6.443   4.834   1.279
17977SOL     OW65989   5.566   4.527   0.241
17977SOL    HW165990   5.649   4.471   0.245
17977SOL    HW265991   5.495   4.485   0.297
17978SOL     OW65992   7.055   4.571   0.317
17978SOL    HW165993   7.112   4.489   0.309
17978SOL    HW265994   7.083   4.638   0.248
17979SOL     OW65995   6.491   5.447   1.071
17979SOL    HW165996   6.503   5.379   0.998
17979SOL    HW265997   6.394   5.459   1.090
17980SOL     OW65998   6.357   4.531   9.972
17980SOL    HW165999   6.380   4.469   0.048
17980SOL    HW266000   6.258   4.547   9.971
17981SOL     OW66001   6.905   4.131   0.486
17981SOL    HW166002   6.858   4.178   0.410
17981SOL    HW266003   7.004   4.143   0.477
17982SOL     OW66004   5.849   4.304   1.485
17982SOL    HW166005   5.895   4.283   1.399
17982SOL    HW266006   5.787   4.229   1.510
17983SOL     OW66007   5.725   4.042   1.418
17983SOL    HW166008   5.792   4.013   1.351
17983SOL    HW266009   5.634   4.012   1.390
17984SOL     OW66010   6.567   4.547   1.281
17984SOL    HW166011   6.580   4.535   1.182
17984SOL    HW266012   6.481   4.505   1.309
17985SOL     OW66013   7.185   4.089   0.512
17985SOL    HW166014   7.281   4.082   0.487
17985SOL    HW266015   7.177   4.109   0.610
17986SOL     OW66016   6.494   5.264   0.879
17986SOL    HW166017   6.551   5.186   0.852
17986SOL    HW266018   6.402   5.253   0.841
17987SOL     OW66019   7.263   5.310   0.675
17987SOL    HW166020   7.229   5.398   0.707
17987SOL    HW266021   7.232   5.294   0.581
17988SOL     OW66022   6.696   4.603   0.596
17988SOL    HW166023   6.769   4.616   0.663
17988SOL    HW266024   6.627   4.674   0.608
17989SOL     OW66025   6.368   5.342   1.617
17989SOL    HW166026   6.326   5.283   1.548
17989SOL    HW266027   6.370   5.294   1.705
17990SOL     OW66028   6.905   4.661   0.758
17990SOL    HW166029   6.967   4.657   0.837
17990SOL    HW266030   6.926   4.743   0.704
17991SOL     OW66031   5.856   4.781   0.917
17991SOL    HW166032   5.765   4.819   0.903
17991SOL    HW266033   5.867   4.755   1.013
17992SOL     OW66034   6.803   5.067   1.435
17992SOL    HW166035   6.847   5.152   1.464
17992SOL    HW266036   6.704   5.076   1.448
17993SOL     OW66037   5.511   4.056   0.458
17993SOL    HW166038   5.541   3.993   0.386
17993SOL    HW266039   5.562   4.037   0.542
17994SOL     OW66040   7.125   5.473   0.207
17994SOL    HW166041   7.219   5.447   0.234
17994SOL    HW266042   7.123   5.495   0.110
17995SOL     OW66043   6.360   4.438   1.449
17995SOL    HW166044   6.345   4.528   1.489
17995SOL    HW266045   6.426   4.387   1.505
17996SOL     OW66046   5.616   5.543   1.403
17996SOL    HW166047   5.561   5.626   1.401
17996SOL    HW266048   5.607   5.499   1.493
17997SOL     OW66049   6.310   4.462   0.377
17997SOL    HW166050   6.213   4.483   0.364
17997SOL    HW266051   6.344   4.411   0.298
17998SOL     OW66052   5.826   4.204   0.926
17998SOL    HW166053   5.893   4.198   0.852
17998SOL    HW266054   5.861   4.157   1.007
17999SOL     OW66055   5.847   5.377   0.317
17999SOL    HW166056   5.903   5.433   0.257
17999SOL    HW266057   5.841   5.421   0.407
18000SOL     OW66058   6.881   5.449   1.170
18000SOL    HW166059   6.904   5.465   1.074
18000SOL    HW266060   6.811   5.377   1.176
18001SOL     OW66061   5.587   4.880   0.946
18001SOL    HW166062   5.500   4.879   0.898
18001SOL    HW266063   5.583   4.814   1.022
18002SOL     OW66064   5.529   4.856   0.548
18002SOL    HW166065   5.603   4.920   0.571
18002SOL    HW266066   5.537   4.831   0.451
18003SOL     OW66067   7.126   4.008   1.568
18003SOL    HW166068   7.067   4.084   1.537
18003SOL    HW266069   7.149   4.021   1.664
18004SOL     OW66070   6.823   3.910   0.914
18004SOL    HW166071   6.841   3.981   0.847
18004SOL    HW266072   6.864   3.936   1.002
18005SOL     OW66073   6.963   3.855   0.231
18005SOL    HW166074   7.023   3.775   0.222
18005SOL    HW266075   6.914   3.850   0.318
18006SOL     OW66076   7.127   3.726   1.577
18006SOL    HW166077   7.117   3.688   1.485
18006SOL    HW266078   7.130   3.826   1.572
18007SOL     OW66079   6.264   4.046   0.700
18007SOL    HW166080   6.253   3.965   0.757
18007SOL    HW266081   6.360   4.075   0.701
18008SOL     OW66082   6.826   4.280   1.127
18008SOL    HW166083   6.800   4.316   1.037
18008SOL    HW266084   6.875   4.350   1.178
18009SOL     OW66085   7.108   3.732   0.496
18009SOL    HW166086   7.115   3.693   0.404
18009SOL    HW266087   7.020   3.779   0.505
18010SOL     OW66088   6.107   5.103   1.747
18010SOL    HW166089   6.060   5.170   1.689
18010SOL    HW266090   6.194   5.141   1.779
18011SOL     OW66091   5.935   4.810   1.650
18011SOL    HW166092   5.995   4.777   1.577
18011SOL    HW266093   5.934   4.910   1.649
18012SOL     OW66094   5.679   5.094   1.102
18012SOL    HW166095   5.654   5.029   1.030
18012SOL    HW266096   5.607   5.096   1.171
18013SOL     OW66097   6.689   4.280   0.876
18013SOL    HW166098   6.765   4.231   0.833
18013SOL    HW266099   6.641   4.220   0.939
18014SOL     OW66100   6.941   4.029   1.140
18014SOL    HW166101   6.906   4.123   1.132
18014SOL    HW266102   6.923   3.995   1.233
18015SOL     OW66103   6.790   4.506   0.362
18015SOL    HW166104   6.758   4.535   0.452
18015SOL    HW266105   6.885   4.533   0.350
18016SOL     OW66106   7.117   4.580   0.588
18016SOL    HW166107   7.086   4.584   0.493
18016SOL    HW266108   7.038   4.590   0.649
18017SOL     OW66109   7.305   4.537   1.501
18017SOL    HW166110   7.230   4.603   1.509
18017SOL    HW266111   7.389   4.586   1.478
18018SOL     OW66112   7.136   4.071   0.247
18018SOL    HW166113   7.157   4.068   0.345
18018SOL    HW266114   7.061   4.008   0.227
18019SOL     OW66115   6.260   5.188   1.417
18019SOL    HW166116   6.198   5.262   1.393
18019SOL    HW266117   6.225   5.101   1.382
18020SOL     OW66118   5.693   3.949   1.676
18020SOL    HW166119   5.703   3.986   1.584
18020SOL    HW266120   5.597   3.956   1.704
18021SOL     OW66121   5.602   5.407   1.643
18021SOL    HW166122   5.686   5.424   1.694
18021SOL    HW266123   5.524   5.411   1.705
18022SOL     OW66124   5.616   3.988   0.715
18022SOL    HW166125   5.599   4.082   0.746
18022SOL    HW266126   5.712   3.964   0.731
18023SOL     OW66127   6.940   5.294   1.503
18023SOL    HW166128   6.868   5.353   1.539
18023SOL    HW266129   6.997   5.346   1.440
18024SOL     OW66130   5.780   4.359   0.250
18024SOL    HW166131   5.848   4.358   0.177
18024SOL    HW266132   5.826   4.366   0.338
18025SOL     OW66133   7.332   3.942   1.393
18025SOL    HW166134   7.259   3.972   1.455
18025SOL    HW266135   7.303   3.951   1.298
18026SOL     OW66136   5.864   5.456   0.801
18026SOL    HW166137   5.834   5.496   0.714
18026SOL    HW266138   5.911   5.369   0.783
18027SOL     OW66139   5.903   4.995   1.239
18027SOL    HW166140   5.895   5.027   1.333
18027SOL    HW266141   5.834   5.039   1.182
18028SOL     OW66142   6.646   5.300   1.826
18028SOL    HW166143   6.632   5.203   1.805
18028SOL    HW266144   6.681   5.347   1.745
18029SOL     OW66145   5.922   4.540   0.790
18029SOL    HW166146   5.912   4.632   0.826
18029SOL    HW266147   6.011   4.502   0.817
18030SOL     OW66148   5.580   4.237   0.813
18030SOL    HW166149   5.511   4.290   0.863
18030SOL    HW266150   5.666   4.237   0.864
18031SOL     OW66151   6.099   4.777   0.173
18031SOL    HW166152   6.193   4.752   0.195
18031SOL    HW266153   6.066   4.846   0.239
18032SOL     OW66154   6.687   4.284   0.014
18032SOL    HW166155   6.688   4.382   9.999
18032SOL    HW266156   6.764   4.241   9.966
18033SOL     OW66157   6.423   4.334   0.162
18033SOL    HW166158   6.522   4.336   0.179
18033SOL    HW266159   6.401   4.258   0.102
18034SOL     OW66160   6.863   3.864   0.490
18034SOL    HW166161   6.768   3.850   0.520
18034SOL    HW266162   6.885   3.961   0.492
18035SOL     OW66163   6.945   4.205   1.477
18035SOL    HW166164   6.876   4.277   1.473
18035SOL    HW266165   6.908   4.120   1.441
18036SOL     OW66166   5.858   4.730   1.188
18036SOL    HW166167   5.861   4.670   1.268
18036SOL    HW266168   5.883   4.823   1.215
18037SOL     OW66169   7.149   4.756   0.110
18037SOL    HW166170   7.238   4.750   0.156
18037SOL    HW266171   7.159   4.809   0.026
18038SOL     OW66172   6.193   4.385   1.232
18038SOL    HW166173   6.239   4.399   1.320
18038SOL    HW266174   6.104   4.342   1.248
18039SOL     OW66175   6.353   4.692   1.554
18039SOL    HW166176   6.413   4.742   1.492
18039SOL    HW266177   6.326   4.751   1.629
18040SOL     OW66178   6.708   4.776   1.704
18040SOL    HW166179   6.643   4.705   1.730
18040SOL    HW266180   6.796   4.760   1.749
18041SOL     OW66181   6.600   3.932   0.587
18041SOL    HW166182   6.574   4.025   0.611
18041SOL    HW266183   6.591   3.873   0.667
18042SOL     OW66184   6.734   5.440   1.601
18042SOL    HW166185   6.658   5.469   1.543
18042SOL    HW266186   6.769   5.520   1.652
18043SOL     OW66187   6.214   3.834   0.866
18043SOL    HW166188   6.150   3.768   0.826
18043SOL    HW266189   6.287   3.784   0.914
18044SOL     OW66190   5.853   5.515   1.262
18044SOL    HW166191   5.824   5.463   1.181
18044SOL    HW266192   5.775   5.527   1.323
18045SOL     OW66193   6.245   4.592   1.049
18045SOL    HW166194   6.221   4.548   0.963
18045SOL    HW266195   6.223   4.530   1.125
18046SOL     OW66196   5.594   4.685   1.137
18046SOL    HW166197   5.690   4.699   1.164
18046SOL    HW266198   5.591   4.614   1.066
18047SOL     OW66199   5.841   3.726   0.553
18047SOL    HW166200   5.827   3.810   0.604
18047SOL    HW266201   5.769   3.660   0.576
18048SOL     OW66202   6.080   4.354   1.851
18048SOL    HW166203   6.060   4.406   1.768
18048SOL    HW266204   6.179   4.348   1.864
18049SOL     OW66205   5.560   4.794   0.279
18049SOL    HW166206   5.573   4.696   0.265
18049SOL    HW266207   5.619   4.844   0.215
18050SOL     OW66208   7.315   3.918   0.885
18050SOL    HW166209   7.292   3.931   0.981
18050SOL    HW266210   7.412   3.898   0.876
18051SOL     OW66211   6.351   4.833   1.123
18051SOL    HW166212   6.311   4.747   1.093
18051SOL    HW266213   6.442   4.844   1.081
18052SOL     OW66214   6.751   4.249   0.285
18052SOL    HW166215   6.762   4.343   0.316
18052SOL    HW266216   6.741   4.247   0.185
18053SOL     OW66217   7.103   5.170   1.682
18053SOL    HW166218   7.061   5.090   1.724
18053SOL    HW266219   7.038   5.212   1.618
18054SOL     OW66220   5.777   4.554   1.392
18054SOL    HW166221   5.797   4.464   1.430
18054SOL    HW266222   5.741   4.614   1.464
18055SOL     OW66223   6.213   5.430   1.019
18055SOL    HW166224   6.218   5.372   0.938
18055SOL    HW266225   6.134   5.402   1.075
18056SOL     OW66226   5.662   4.523   0.918
18056SOL    HW166227   5.751   4.513   0.871
18056SOL    HW266228   5.595   4.558   0.853
18057SOL     OW66229   5.555   4.643   1.849
18057SOL    HW166230   5.458   4.640   1.826
18057SOL    HW266231   5.581   4.559   1.897
18058SOL     OW66232   6.509   5.504   1.447
18058SOL    HW166233   6.464   5.441   1.511
18058SOL    HW266234   6.442   5.570   1.413
18059SOL     OW66235   6.617   4.845   1.043
18059SOL    HW166236   6.664   4.933   1.046
18059SOL    HW266237   6.683   4.771   1.050
18060SOL     OW66238   6.092   4.070   1.761
18060SOL    HW166239   6.159   4.049   1.691
18060SOL    HW266240   6.086   4.169   1.774
18061SOL     OW66241   6.054   4.538   0.352
18061SOL    HW166242   6.025   4.608   0.286
18061SOL    HW266243   5.978   4.517   0.414
18062SOL     OW66244   7.097   4.649   0.962
18062SOL    HW166245   7.142   4.725   0.915
18062SOL    HW266246   7.057   4.682   1.047
18063SOL     OW66247   6.877   3.954   1.400
18063SOL    HW166248   6.931   3.908   1.470
18063SOL    HW266249   6.805   3.892   1.367
18064SOL     OW66250   5.526   3.771   0.559
18064SOL    HW166251   5.427   3.765   0.548
18064SOL    HW266252   5.548   3.839   0.629
18065SOL     OW66253   6.810   3.824   1.757
18065SOL    HW166254   6.856   3.793   1.841
18065SOL    HW266255   6.757   3.906   1.777
18066SOL     OW66256   5.977   5.304   1.610
18066SOL    HW166257   5.928   5.366   1.670
18066SOL    HW266258   6.021   5.356   1.536
18067SOL     OW66259   7.331   5.178   1.528
18067SOL    HW166260   7.383   5.261   1.549
18067SOL    HW266261   7.250   5.173   1.587
18068SOL     OW66262   6.568   4.150   1.090
18068SOL    HW166263   6.644   4.197   1.136
18068SOL    HW266264   6.569   4.053   1.114
18069SOL     OW66265   5.964   5.209   0.732
18069SOL    HW166266   5.989   5.125   0.780
18069SOL    HW266267   5.875   5.197   0.688
18070SOL     OW66268   6.657   5.289   1.220
18070SOL    HW166269   6.619   5.269   1.310
18070SOL    HW266270   6.596   5.351   1.171
18071SOL     OW66271   5.831   5.469   1.788
18071SOL    HW166272   5.851   5.566   1.788
18071SOL    HW266273   5.833   5.434   1.882
18072SOL     OW66274   5.663   4.986   1.635
18072SOL    HW166275   5.641   4.892   1.613
18072SOL    HW266276   5.594   5.047   1.596
18073SOL     OW66277   5.747   5.369   1.049
18073SOL    HW166278   5.735   5.270   1.053
18073SOL    HW266279   5.779   5.396   0.959
18074SOL     OW66280   6.583   3.793   0.825
18074SOL    HW166281   6.671   3.828   0.858
18074SOL    HW266282   6.524   3.772   0.903
18075SOL     OW66283   7.163   4.134   0.786
18075SOL    HW166284   7.193   4.221   0.825
18075SOL    HW266285   7.220   4.060   0.822
18076SOL     OW66286   6.351   4.703   0.256
18076SOL    HW166287   6.447   4.715   0.231
18076SOL    HW266288   6.341   4.622   0.313
18077SOL     OW66289   6.030   4.174   0.745
18077SOL    HW166290   6.113   4.122   0.724
18077SOL    HW266291   6.054   4.269   0.762
18078SOL     OW66292   6.101   4.724   1.455
18078SOL    HW166293   6.191   4.700   1.492
18078SOL    HW266294   6.110   4.802   1.393
18079SOL     OW66295   7.328   4.827   1.352
18079SOL    HW166296   7.308   4.919   1.318
18079SOL    HW266297   7.377   4.775   1.282
18080SOL     OW66298   5.709   4.959   0.114
18080SOL    HW166299   5.629   5.001   0.070
18080SOL    HW266300   5.780   5.028   0.127
18081SOL     OW66301   6.843   4.798   1.449
18081SOL    HW166302   6.784   4.764   1.523
18081SOL    HW266303   6.828   4.896   1.437
18082SOL     OW66304   6.091   5.428   1.386
18082SOL    HW166305   6.154   5.506   1.389
18082SOL    HW266306   6.006   5.456   1.339
18083SOL     OW66307   7.214   5.251   1.070
18083SOL    HW166308   7.256   5.338   1.095
18083SOL    HW266309   7.229   5.184   1.143
18084SOL     OW66310   5.488   4.631   0.713
18084SOL    HW166311   5.513   4.712   0.660
18084SOL    HW266312   5.389   4.624   0.719
18085SOL     OW66313   6.027   4.473   1.611
18085SOL    HW166314   5.961   4.412   1.569
18085SOL    HW266315   6.044   4.551   1.551
18086SOL     OW66316   7.191   4.866   0.813
18086SOL    HW166317   7.163   4.961   0.828
18086SOL    HW266318   7.188   4.845   0.716
18087SOL     OW66319   6.291   4.233   1.030
18087SOL    HW166320   6.387   4.208   1.041
18087SOL    HW266321   6.262   4.289   1.107
18088SOL     OW66322   6.170   4.951   1.296
18088SOL    HW166323   6.080   4.971   1.257
18088SOL    HW266324   6.230   4.916   1.225
18089SOL     OW66325   5.718   4.389   1.166
18089SOL    HW166326   5.727   4.463   1.233
18089SOL    HW266327   5.708   4.428   1.075
18090SOL     OW66328   5.879   5.075   1.496
18090SOL    HW166329   5.914   5.161   1.533
18090SOL    HW266330   5.798   5.047   1.547
18091SOL     OW66331   7.213   5.409   1.768
18091SOL    HW166332   7.173   5.318   1.756
18091SOL    HW266333   7.181   5.469   1.694
18092SOL     OW66334   6.954   4.848   0.564
18092SOL    HW166335   7.038   4.898   0.546
18092SOL    HW266336   6.898   4.843   0.481
18093SOL     OW66337   7.176   3.701   0.762
18093SOL    HW166338   7.153   3.722   0.667
18093SOL    HW266339   7.228   3.777   0.802
18094SOL     OW66340   6.763   4.421   1.428
18094SOL    HW166341   6.848   4.445   1.380
18094SOL    HW266342   6.686   4.467   1.383
18095SOL     OW66343   6.174   4.408   0.843
18095SOL    HW166344   6.211   4.343   0.909
18095SOL    HW266345   6.226   4.400   0.757
18096SOL     OW66346   6.755   5.086   1.058
18096SOL    HW166347   6.713   5.151   1.121
18096SOL    HW266348   6.798   5.135   0.982
18097SOL     OW66349   6.888   4.129   0.759
18097SOL    HW166350   6.875   4.133   0.660
18097SOL    HW266351   6.986   4.133   0.781
18098SOL     OW66352   7.187   4.349   3.295
18098SOL    HW166353   7.101   4.298   3.297
18098SOL    HW266354   7.246   4.317   3.370
18099SOL     OW66355   5.910   3.881   1.814
18099SOL    HW166356   5.826   3.903   1.764
18099SOL    HW266357   5.979   3.950   1.795
18100SOL     OW66358   6.710   3.772   3.219
18100SOL    HW166359   6.627   3.770   3.275
18100SOL    HW266360   6.711   3.693   3.158
18101SOL     OW66361   6.564   4.591   3.633
18101SOL    HW166362   6.549   4.534   3.552
18101SOL    HW266363   6.476   4.614   3.675
18102SOL     OW66364   6.075   5.204   2.208
18102SOL    HW166365   6.033   5.198   2.299
18102SOL    HW266366   6.174   5.187   2.216
18103SOL     OW66367   6.094   3.726   1.951
18103SOL    HW166368   6.185   3.766   1.961
18103SOL    HW266369   6.037   3.786   1.895
18104SOL     OW66370   6.516   5.066   3.312
18104SOL    HW166371   6.435   5.123   3.304
18104SOL    HW266372   6.505   4.984   3.257
18105SOL     OW66373   5.994   4.903   2.519
18105SOL    HW166374   5.945   4.870   2.600
18105SOL    HW266375   6.089   4.871   2.522
18106SOL     OW66376   6.259   4.327   2.429
18106SOL    HW166377   6.262   4.398   2.360
18106SOL    HW266378   6.243   4.238   2.385
18107SOL     OW66379   6.814   4.228   3.570
18107SOL    HW166380   6.909   4.207   3.593
18107SOL    HW266381   6.761   4.143   3.569
18108SOL     OW66382   5.958   5.097   1.980
18108SOL    HW166383   6.015   5.107   1.898
18108SOL    HW266384   6.003   5.143   2.057
18109SOL     OW66385   6.070   4.021   2.857
18109SOL    HW166386   6.121   4.107   2.852
18109SOL    HW266387   6.131   3.946   2.831
18110SOL     OW66388   6.304   5.381   2.387
18110SOL    HW166389   6.331   5.311   2.321
18110SOL    HW266390   6.294   5.469   2.341
18111SOL     OW66391   7.493   5.408   2.166
18111SOL    HW166392   7.554   5.329   2.162
18111SOL    HW266393   7.398   5.377   2.168
18112SOL     OW66394   7.194   4.048   3.038
18112SOL    HW166395   7.226   4.141   3.021
18112SOL    HW266396   7.100   4.039   3.004
18113SOL     OW66397   6.607   4.048   2.244
18113SOL    HW166398   6.650   4.137   2.253
18113SOL    HW266399   6.622   3.995   2.328
18114SOL     OW66400   5.745   4.714   3.438
18114SOL    HW166401   5.835   4.750   3.464
18114SOL    HW266402   5.699   4.676   3.518
18115SOL     OW66403   6.199   5.253   2.599
18115SOL    HW166404   6.250   5.307   2.531
18115SOL    HW266405   6.116   5.217   2.557
18116SOL     OW66406   6.561   4.372   3.446
18116SOL    HW166407   6.610   4.297   3.492
18116SOL    HW266408   6.622   4.418   3.383
18117SOL     OW66409   5.839   4.941   2.293
18117SOL    HW166410   5.892   4.925   2.377
18117SOL    HW266411   5.884   4.897   2.216
18118SOL     OW66412   6.696   3.975   1.992
18118SOL    HW166413   6.757   3.896   1.998
18118SOL    HW266414   6.666   4.002   2.084
18119SOL     OW66415   5.917   4.231   3.106
18119SOL    HW166416   5.909   4.132   3.094
18119SOL    HW266417   5.851   4.277   3.047
18120SOL     OW66418   6.987   4.517   3.164
18120SOL    HW166419   7.031   4.595   3.120
18120SOL    HW266420   7.053   4.467   3.220
18121SOL     OW66421   5.937   4.003   2.284
18121SOL    HW166422   5.876   4.035   2.356
18121SOL    HW266423   5.888   3.999   2.198
18122SOL     OW66424   7.077   5.502   3.233
18122SOL    HW166425   7.032   5.549   3.157
18122SOL    HW266426   7.176   5.505   3.219
18123SOL     OW66427   7.281   4.318   3.034
18123SOL    HW166428   7.379   4.335   3.026
18123SOL    HW266429   7.253   4.332   3.129
18124SOL     OW66430   7.555   5.587   3.047
18124SOL    HW166431   7.478   5.568   3.108
18124SOL    HW266432   7.587   5.501   3.006
18125SOL     OW66433   6.475   4.215   2.576
18125SOL    HW166434   6.560   4.265   2.594
18125SOL    HW266435   6.414   4.273   2.522
18126SOL     OW66436   6.632   4.024   3.582
18126SOL    HW166437   6.654   4.006   3.678
18126SOL    HW266438   6.533   4.014   3.567
18127SOL     OW66439   6.540   5.491   1.997
18127SOL    HW166440   6.577   5.426   1.931
18127SOL    HW266441   6.557   5.457   2.090
18128SOL     OW66442   6.262   3.752   3.584
18128SOL    HW166443   6.283   3.657   3.561
18128SOL    HW266444   6.295   3.772   3.676
18129SOL     OW66445   7.090   4.376   2.844
18129SOL    HW166446   7.083   4.473   2.821
18129SOL    HW266447   7.162   4.363   2.913
18130SOL     OW66448   6.641   5.017   3.564
18130SOL    HW166449   6.692   4.933   3.545
18130SOL    HW266450   6.584   5.040   3.485
18131SOL     OW66451   6.304   4.852   3.578
18131SOL    HW166452   6.243   4.932   3.578
18131SOL    HW266453   6.318   4.821   3.671
18132SOL     OW66454   7.300   3.902   3.682
18132SOL    HW166455   7.237   3.947   3.745
18132SOL    HW266456   7.358   3.839   3.733
18133SOL     OW66457   5.642   4.419   2.390
18133SOL    HW166458   5.651   4.355   2.466
18133SOL    HW266459   5.624   4.511   2.426
18134SOL     OW66460   5.857   3.893   2.649
18134SOL    HW166461   5.927   3.930   2.710
18134SOL    HW266462   5.866   3.793   2.645
18135SOL     OW66463   5.900   3.958   3.066
18135SOL    HW166464   5.905   3.862   3.094
18135SOL    HW266465   5.962   3.973   2.989
18136SOL     OW66466   6.629   4.552   2.833
18136SOL    HW166467   6.700   4.615   2.863
18136SOL    HW266468   6.669   4.484   2.772
18137SOL     OW66469   5.748   5.206   2.223
18137SOL    HW166470   5.774   5.111   2.237
18137SOL    HW266471   5.810   5.247   2.156
18138SOL     OW66472   5.726   5.282   2.487
18138SOL    HW166473   5.630   5.295   2.512
18138SOL    HW266474   5.732   5.265   2.388
18139SOL     OW66475   6.058   4.686   1.866
18139SOL    HW166476   6.002   4.713   1.789
18139SOL    HW266477   6.020   4.723   1.951
18140SOL     OW66478   6.473   4.845   3.150
18140SOL    HW166479   6.519   4.759   3.128
18140SOL    HW266480   6.416   4.873   3.073
18141SOL     OW66481   7.218   4.497   2.240
18141SOL    HW166482   7.282   4.438   2.289
18141SOL    HW266483   7.252   4.516   2.148
18142SOL     OW66484   6.411   5.510   2.849
18142SOL    HW166485   6.467   5.483   2.928
18142SOL    HW266486   6.327   5.455   2.848
18143SOL     OW66487   6.310   4.590   1.918
18143SOL    HW166488   6.314   4.500   1.961
18143SOL    HW266489   6.215   4.611   1.894
18144SOL     OW66490   6.921   4.125   2.320
18144SOL    HW166491   6.866   4.198   2.279
18144SOL    HW266492   7.017   4.154   2.322
18145SOL     OW66493   5.877   4.375   3.329
18145SOL    HW166494   5.892   4.313   3.252
18145SOL    HW266495   5.836   4.325   3.405
18146SOL     OW66496   5.661   3.976   3.226
18146SOL    HW166497   5.736   3.980   3.159
18146SOL    HW266498   5.587   4.037   3.197
18147SOL     OW66499   6.540   4.586   3.088
18147SOL    HW166500   6.561   4.567   2.992
18147SOL    HW266501   6.468   4.524   3.119
18148SOL     OW66502   7.181   4.182   2.381
18148SOL    HW166503   7.260   4.238   2.356
18148SOL    HW266504   7.173   4.178   2.481
18149SOL     OW66505   6.352   5.051   2.700
18149SOL    HW166506   6.445   5.088   2.707
18149SOL    HW266507   6.290   5.121   2.666
18150SOL     OW66508   6.375   4.072   2.107
18150SOL    HW166509   6.302   4.066   2.175
18150SOL    HW266510   6.463   4.063   2.153
18151SOL     OW66511   6.474   5.021   2.002
18151SOL    HW166512   6.518   4.971   2.076
18151SOL    HW266513   6.528   5.012   1.918
18152SOL     OW66514   6.650   4.498   2.406
18152SOL    HW166515   6.722   4.529   2.468
18152SOL    HW266516   6.578   4.567   2.401
18153SOL     OW66517   6.376   5.348   3.492
18153SOL    HW166518   6.336   5.296   3.417
18153SOL    HW266519   6.379   5.292   3.575
18154SOL     OW66520   6.879   4.538   2.592
18154SOL    HW166521   6.829   4.456   2.622
18154SOL    HW266522   6.929   4.576   2.670
18155SOL     OW66523   5.875   4.809   2.741
18155SOL    HW166524   5.780   4.842   2.746
18155SOL    HW266525   5.908   4.786   2.832
18156SOL     OW66526   6.430   4.678   2.373
18156SOL    HW166527   6.369   4.619   2.318
18156SOL    HW266528   6.381   4.709   2.454
18157SOL     OW66529   6.779   5.100   3.225
18157SOL    HW166530   6.828   5.176   3.267
18157SOL    HW266531   6.684   5.100   3.256
18158SOL     OW66532   5.601   4.040   2.240
18158SOL    HW166533   5.665   4.036   2.164
18158SOL    HW266534   5.651   4.057   2.325
18159SOL     OW66535   7.168   5.564   1.987
18159SOL    HW166536   7.254   5.600   2.024
18159SOL    HW266537   7.188   5.499   1.914
18160SOL     OW66538   6.364   4.445   3.257
18160SOL    HW166539   6.355   4.536   3.298
18160SOL    HW266540   6.432   4.392   3.308
18161SOL     OW66541   6.265   4.506   2.226
18161SOL    HW166542   6.172   4.518   2.192
18161SOL    HW266543   6.316   4.449   2.162
18162SOL     OW66544   5.854   4.201   2.764
18162SOL    HW166545   5.914   4.207   2.685
18162SOL    HW266546   5.894   4.139   2.832
18163SOL     OW66547   5.859   5.467   2.077
18163SOL    HW166548   5.940   5.512   2.040
18163SOL    HW266549   5.855   5.482   2.176
18164SOL     OW66550   6.831   5.450   3.049
18164SOL    HW166551   6.826   5.486   2.956
18164SOL    HW266552   6.879   5.362   3.048
18165SOL     OW66553   5.614   4.897   2.800
18165SOL    HW166554   5.531   4.881   2.747
18165SOL    HW266555   5.618   4.831   2.875
18166SOL     OW66556   6.285   3.786   2.258
18166SOL    HW166557   6.301   3.781   2.159
18166SOL    HW266558   6.250   3.876   2.281
18167SOL     OW66559   5.575   4.860   2.314
18167SOL    HW166560   5.668   4.896   2.327
18167SOL    HW266561   5.558   4.846   2.217
18168SOL     OW66562   7.138   3.942   3.464
18168SOL    HW166563   7.095   4.030   3.484
18168SOL    HW266564   7.200   3.918   3.537
18169SOL     OW66565   6.761   3.979   2.777
18169SOL    HW166566   6.811   4.028   2.706
18169SOL    HW266567   6.815   3.975   2.861
18170SOL     OW66568   6.876   3.765   2.027
18170SOL    HW166569   6.901   3.669   2.022
18170SOL    HW266570   6.884   3.797   2.121
18171SOL     OW66571   7.119   3.673   3.394
18171SOL    HW166572   7.165   3.668   3.305
18171SOL    HW266573   7.110   3.768   3.422
18172SOL     OW66574   6.268   4.029   2.575
18172SOL    HW166575   6.263   3.956   2.643
18172SOL    HW266576   6.350   4.084   2.591
18173SOL     OW66577   6.870   4.311   2.998
18173SOL    HW166578   6.939   4.330   2.929
18173SOL    HW266579   6.880   4.374   3.075
18174SOL     OW66580   7.120   3.741   2.283
18174SOL    HW166581   7.188   3.813   2.299
18174SOL    HW266582   7.028   3.779   2.292
18175SOL     OW66583   6.126   5.082   3.602
18175SOL    HW166584   6.081   5.150   3.544
18175SOL    HW266585   6.212   5.120   3.637
18176SOL     OW66586   5.986   4.825   3.519
18176SOL    HW166587   6.039   4.803   3.437
18176SOL    HW266588   6.006   4.918   3.549
18177SOL     OW66589   5.706   5.120   2.936
18177SOL    HW166590   5.678   5.049   2.872
18177SOL    HW266591   5.630   5.144   2.995
18178SOL     OW66592   6.729   4.324   2.681
18178SOL    HW166593   6.793   4.255   2.646
18178SOL    HW266594   6.682   4.287   2.761
18179SOL     OW66595   7.317   4.306   3.550
18179SOL    HW166596   7.315   4.404   3.529
18179SOL    HW266597   7.411   4.278   3.568
18180SOL     OW66598   6.911   4.040   3.003
18180SOL    HW166599   6.895   4.139   3.007
18180SOL    HW266600   6.908   4.002   3.095
18181SOL     OW66601   7.081   4.171   3.629
18181SOL    HW166602   7.163   4.223   3.605
18181SOL    HW266603   7.095   4.125   3.717
18182SOL     OW66604   7.112   4.622   2.458
18182SOL    HW166605   7.137   4.578   2.372
18182SOL    HW266606   7.027   4.582   2.494
18183SOL     OW66607   7.324   4.557   3.444
18183SOL    HW166608   7.265   4.526   3.369
18183SOL    HW266609   7.395   4.618   3.408
18184SOL     OW66610   6.273   5.209   3.280
18184SOL    HW166611   6.216   5.288   3.258
18184SOL    HW266612   6.234   5.127   3.236
18185SOL     OW66613   5.695   3.961   3.497
18185SOL    HW166614   5.690   3.965   3.397
18185SOL    HW266615   5.610   3.923   3.532
18186SOL     OW66616   5.613   5.332   3.520
18186SOL    HW166617   5.697   5.377   3.551
18186SOL    HW266618   5.535   5.366   3.573
18187SOL     OW66619   5.741   4.061   2.470
18187SOL    HW166620   5.701   4.138   2.519
18187SOL    HW266621   5.782   3.997   2.535
18188SOL     OW66622   6.914   5.308   3.347
18188SOL    HW166623   6.845   5.359   3.398
18188SOL    HW266624   6.974   5.373   3.299
18189SOL     OW66625   7.294   3.897   3.238
18189SOL    HW166626   7.236   3.922   3.316
18189SOL    HW266627   7.262   3.943   3.156
18190SOL     OW66628   5.904   5.437   2.628
18190SOL    HW166629   5.830   5.392   2.578
18190SOL    HW266630   5.989   5.428   2.576
18191SOL     OW66631   5.899   4.993   3.089
18191SOL    HW166632   5.884   5.023   3.183
18191SOL    HW266633   5.835   5.041   3.028
18192SOL     OW66634   6.710   5.261   3.681
18192SOL    HW166635   6.685   5.171   3.645
18192SOL    HW266636   6.716   5.326   3.605
18193SOL     OW66637   6.262   4.941   2.330
18193SOL    HW166638   6.265   4.882   2.249
18193SOL    HW266639   6.267   4.884   2.412
18194SOL     OW66640   5.930   4.540   2.665
18194SOL    HW166641   5.934   4.639   2.674
18194SOL    HW266642   6.022   4.502   2.669
18195SOL     OW66643   5.793   4.003   2.040
18195SOL    HW166644   5.838   3.944   1.973
18195SOL    HW266645   5.810   4.099   2.017
18196SOL     OW66646   5.635   4.265   2.618
18196SOL    HW166647   5.556   4.304   2.665
18196SOL    HW266648   5.709   4.251   2.682
18197SOL     OW66649   5.998   4.848   2.083
18197SOL    HW166650   6.097   4.840   2.095
18197SOL    HW266651   5.976   4.936   2.042
18198SOL     OW66652   6.628   4.369   1.973
18198SOL    HW166653   6.627   4.452   1.918
18198SOL    HW266654   6.633   4.289   1.913
18199SOL     OW66655   6.361   4.337   2.025
18199SOL    HW166656   6.459   4.355   2.011
18199SOL    HW266657   6.348   4.241   2.049
18200SOL     OW66658   6.870   3.859   2.291
18200SOL    HW166659   6.793   3.843   2.353
18200SOL    HW266660   6.895   3.956   2.293
18201SOL     OW66661   6.956   4.216   3.320
18201SOL    HW166662   6.892   4.248   3.390
18201SOL    HW266663   6.931   4.124   3.290
18202SOL     OW66664   5.627   3.776   1.980
18202SOL    HW166665   5.699   3.709   2.001
18202SOL    HW266666   5.657   3.867   2.009
18203SOL     OW66667   5.965   4.743   2.993
18203SOL    HW166668   5.937   4.675   3.060
18203SOL    HW266669   5.947   4.835   3.029
18204SOL     OW66670   6.179   4.349   3.072
18204SOL    HW166671   6.232   4.386   3.148
18204SOL    HW266672   6.089   4.319   3.105
18205SOL     OW66673   6.385   4.698   3.370
18205SOL    HW166674   6.433   4.754   3.303
18205SOL    HW266675   6.366   4.752   3.452
18206SOL     OW66676   6.732   4.765   3.477
18206SOL    HW166677   6.662   4.711   3.525
18206SOL    HW266678   6.819   4.716   3.480
18207SOL     OW66679   6.652   3.885   2.475
18207SOL    HW166680   6.685   3.922   2.561
18207SOL    HW266681   6.567   3.835   2.490
18208SOL     OW66682   6.729   5.451   3.488
18208SOL    HW166683   6.653   5.481   3.431
18208SOL    HW266684   6.770   5.531   3.534
18209SOL     OW66685   6.251   3.836   2.770
18209SOL    HW166686   6.213   3.747   2.795
18209SOL    HW266687   6.351   3.831   2.771
18210SOL     OW66688   5.898   5.517   3.101
18210SOL    HW166689   5.895   5.455   3.023
18210SOL    HW266690   5.814   5.508   3.155
18211SOL     OW66691   6.180   4.685   2.811
18211SOL    HW166692   6.192   4.591   2.781
18211SOL    HW266693   6.106   4.690   2.878
18212SOL     OW66694   5.635   4.701   2.987
18212SOL    HW166695   5.699   4.670   3.058
18212SOL    HW266696   5.643   4.640   2.908
18213SOL     OW66697   5.849   3.724   2.296
18213SOL    HW166698   5.899   3.806   2.324
18213SOL    HW266699   5.753   3.734   2.322
18214SOL     OW66700   6.284   4.362   3.558
18214SOL    HW166701   6.223   4.416   3.500
18214SOL    HW266702   6.376   4.362   3.519
18215SOL     OW66703   5.569   4.846   2.036
18215SOL    HW166704   5.581   4.772   1.970
18215SOL    HW266705   5.614   4.929   2.001
18216SOL     OW66706   6.310   4.900   2.930
18216SOL    HW166707   6.272   4.814   2.895
18216SOL    HW266708   6.326   4.962   2.853
18217SOL     OW66709   6.718   4.298   2.232
18217SOL    HW166710   6.695   4.369   2.298
18217SOL    HW266711   6.696   4.330   2.140
18218SOL     OW66712   7.063   5.130   3.490
18218SOL    HW166713   7.010   5.081   3.559
18218SOL    HW266714   7.002   5.187   3.435
18219SOL     OW66715   5.801   4.597   3.188
18219SOL    HW166716   5.832   4.513   3.231
18219SOL    HW266717   5.780   4.665   3.259
18220SOL     OW66718   6.333   5.207   1.850
18220SOL    HW166719   6.282   5.268   1.910
18220SOL    HW266720   6.388   5.145   1.906
18221SOL     OW66721   6.157   5.388   2.831
18221SOL    HW166722   6.174   5.333   2.750
18221SOL    HW266723   6.070   5.361   2.872
18222SOL     OW66724   6.267   4.815   2.578
18222SOL    HW166725   6.306   4.900   2.616
18222SOL    HW266726   6.237   4.756   2.653
18223SOL     OW66727   6.352   5.167   2.218
18223SOL    HW166728   6.406   5.140   2.139
18223SOL    HW266729   6.328   5.086   2.272
18224SOL     OW66730   5.677   4.551   2.758
18224SOL    HW166731   5.769   4.535   2.724
18224SOL    HW266732   5.618   4.580   2.683
18225SOL     OW66733   5.605   4.623   3.646
18225SOL    HW166734   5.506   4.616   3.632
18225SOL    HW266735   5.630   4.572   3.728
18226SOL     OW66736   6.508   5.521   3.328
18226SOL    HW166737   6.466   5.453   3.389
18226SOL    HW266738   6.440   5.591   3.306
18227SOL     OW66739   6.786   4.749   2.944
18227SOL    HW166740   6.747   4.833   2.906
18227SOL    HW266741   6.790   4.758   3.044
18228SOL     OW66742   6.040   4.142   3.630
18228SOL    HW166743   6.118   4.116   3.573
18228SOL    HW266744   6.061   4.226   3.680
18229SOL     OW66745   7.050   4.644   2.789
18229SOL    HW166746   7.082   4.720   2.733
18229SOL    HW266747   7.046   4.672   2.885
18230SOL     OW66748   6.903   3.952   3.266
18230SOL    HW166749   6.961   3.918   3.340
18230SOL    HW266750   6.829   3.888   3.247
18231SOL     OW66751   5.584   3.777   2.319
18231SOL    HW166752   5.490   3.744   2.311
18231SOL    HW266753   5.587   3.875   2.297
18232SOL     OW66754   6.831   3.828   3.563
18232SOL    HW166755   6.871   3.835   3.654
18232SOL    HW266756   6.761   3.899   3.553
18233SOL     OW66757   6.001   5.290   3.466
18233SOL    HW166758   5.944   5.348   3.523
18233SOL    HW266759   6.047   5.347   3.397
18234SOL     OW66760   7.316   5.159   3.376
18234SOL    HW166761   7.357   5.248   3.393
18234SOL    HW266762   7.229   5.152   3.425
18235SOL     OW66763   6.624   4.207   2.902
18235SOL    HW166764   6.697   4.247   2.957
18235SOL    HW266765   6.648   4.112   2.879
18236SOL     OW66766   5.977   5.170   2.471
18236SOL    HW166767   5.981   5.071   2.487
18236SOL    HW266768   5.884   5.203   2.485
18237SOL     OW66769   6.554   5.431   3.064
18237SOL    HW166770   6.528   5.446   3.160
18237SOL    HW266771   6.654   5.428   3.057
18238SOL     OW66772   5.842   5.456   3.624
18238SOL    HW166773   5.864   5.553   3.617
18238SOL    HW266774   5.838   5.429   3.720
18239SOL     OW66775   5.683   4.974   3.513
18239SOL    HW166776   5.686   4.880   3.479
18239SOL    HW266777   5.603   5.020   3.475
18240SOL     OW66778   5.882   5.342   2.890
18240SOL    HW166779   5.822   5.262   2.900
18240SOL    HW266780   5.877   5.375   2.795
18241SOL     OW66781   6.525   3.821   2.768
18241SOL    HW166782   6.610   3.871   2.782
18241SOL    HW266783   6.523   3.741   2.829
18242SOL     OW66784   6.560   4.885   2.223
18242SOL    HW166785   6.642   4.904   2.277
18242SOL    HW266786   6.508   4.812   2.267
18243SOL     OW66787   7.177   4.200   2.656
18243SOL    HW166788   7.138   4.263   2.723
18243SOL    HW266789   7.277   4.201   2.663
18244SOL     OW66790   6.276   4.826   2.075
18244SOL    HW166791   6.334   4.899   2.039
18244SOL    HW266792   6.298   4.740   2.029
18245SOL     OW66793   6.355   3.811   1.985
18245SOL    HW166794   6.432   3.748   1.993
18245SOL    HW266795   6.384   3.903   2.012
18246SOL     OW66796   6.039   4.188   2.567
18246SOL    HW166797   6.114   4.122   2.581
18246SOL    HW266798   6.077   4.274   2.533
18247SOL     OW66799   6.131   4.763   3.298
18247SOL    HW166800   6.224   4.734   3.321
18247SOL    HW266801   6.134   4.845   3.241
18248SOL     OW66802   5.698   5.046   1.907
18248SOL    HW166803   5.692   5.032   1.808
18248SOL    HW266804   5.791   5.070   1.931
18249SOL     OW66805   6.169   5.356   1.999
18249SOL    HW166806   6.133   5.448   1.984
18249SOL    HW266807   6.130   5.318   2.083
18250SOL     OW66808   6.790   4.827   3.208
18250SOL    HW166809   6.762   4.794   3.298
18250SOL    HW266810   6.789   4.927   3.208
18251SOL     OW66811   6.116   5.442   3.260
18251SOL    HW166812   6.177   5.521   3.268
18251SOL    HW266813   6.041   5.464   3.198
18252SOL     OW66814   5.789   4.213   3.533
18252SOL    HW166815   5.748   4.123   3.519
18252SOL    HW266816   5.879   4.203   3.574
18253SOL     OW66817   5.556   4.652   2.507
18253SOL    HW166818   5.576   4.730   2.446
18253SOL    HW266819   5.457   4.641   2.515
18254SOL     OW66820   6.100   4.508   3.417
18254SOL    HW166821   6.016   4.460   3.391
18254SOL    HW266822   6.102   4.597   3.372
18255SOL     OW66823   7.135   4.845   2.611
18255SOL    HW166824   7.107   4.928   2.563
18255SOL    HW266825   7.130   4.767   2.549
18256SOL     OW66826   6.262   4.233   2.847
18256SOL    HW166827   6.361   4.219   2.845
18256SOL    HW266828   6.236   4.278   2.933
18257SOL     OW66829   6.166   4.993   3.144
18257SOL    HW166830   6.070   5.004   3.118
18257SOL    HW266831   6.219   4.964   3.065
18258SOL     OW66832   5.723   4.393   2.991
18258SOL    HW166833   5.734   4.466   3.058
18258SOL    HW266834   5.717   4.432   2.899
18259SOL     OW66835   5.868   5.084   3.341
18259SOL    HW166836   5.916   5.162   3.381
18259SOL    HW266837   5.803   5.047   3.407
18260SOL     OW66838   7.174   5.351   3.634
18260SOL    HW166839   7.134   5.267   3.598
18260SOL    HW266840   7.133   5.430   3.589
18261SOL     OW66841   6.201   4.054   2.316
18261SOL    HW166842   6.102   4.039   2.304
18261SOL    HW266843   6.226   4.037   2.411
18262SOL     OW66844   6.725   4.496   3.272
18262SOL    HW166845   6.821   4.512   3.250
18262SOL    HW266846   6.667   4.539   3.203
18263SOL     OW66847   6.191   4.439   2.678
18263SOL    HW166848   6.209   4.366   2.743
18263SOL    HW266849   6.227   4.414   2.588
18264SOL     OW66850   6.907   4.128   2.596
18264SOL    HW166851   6.904   4.120   2.497
18264SOL    HW266852   7.002   4.142   2.626
18265SOL     OW66853   6.694   5.193   4.466
18265SOL    HW166854   6.781   5.235   4.442
18265SOL    HW266855   6.635   5.188   4.386
18266SOL     OW66856   7.111   4.978   4.254
18266SOL    HW166857   7.136   5.014   4.344
18266SOL    HW266858   7.194   4.953   4.204
18267SOL     OW66859   7.230   4.324   5.086
18267SOL    HW166860   7.139   4.284   5.102
18267SOL    HW266861   7.281   4.326   5.171
18268SOL     OW66862   5.902   3.912   3.673
18268SOL    HW166863   5.823   3.919   3.612
18268SOL    HW266864   5.963   3.989   3.656
18269SOL     OW66865   6.943   5.313   4.446
18269SOL    HW166866   6.935   5.405   4.483
18269SOL    HW266867   7.030   5.304   4.398
18270SOL     OW66868   6.733   3.759   5.007
18270SOL    HW166869   6.656   3.716   5.055
18270SOL    HW266870   6.776   3.692   4.946
18271SOL     OW66871   6.107   5.192   4.073
18271SOL    HW166872   6.051   5.211   4.154
18271SOL    HW266873   6.185   5.136   4.099
18272SOL     OW66874   6.074   3.763   3.850
18272SOL    HW166875   6.171   3.788   3.849
18272SOL    HW266876   6.025   3.820   3.783
18273SOL     OW66877   7.092   4.736   5.330
18273SOL    HW166878   7.003   4.725   5.284
18273SOL    HW266879   7.154   4.785   5.269
18274SOL     OW66880   7.014   4.785   4.988
18274SOL    HW166881   6.945   4.768   5.058
18274SOL    HW266882   7.002   4.877   4.951
18275SOL     OW66883   5.989   4.932   4.366
18275SOL    HW166884   5.942   4.882   4.438
18275SOL    HW266885   6.086   4.908   4.367
18276SOL     OW66886   6.276   4.349   4.290
18276SOL    HW166887   6.294   4.421   4.223
18276SOL    HW266888   6.262   4.262   4.243
18277SOL     OW66889   6.873   4.227   5.386
18277SOL    HW166890   6.966   4.218   5.422
18277SOL    HW266891   6.813   4.161   5.430
18278SOL     OW66892   5.980   5.090   3.846
18278SOL    HW166893   6.033   5.102   3.762
18278SOL    HW266894   6.024   5.139   3.921
18279SOL     OW66895   6.091   4.099   4.700
18279SOL    HW166896   6.170   4.160   4.701
18279SOL    HW266897   6.117   4.010   4.662
18280SOL     OW66898   5.829   4.502   4.204
18280SOL    HW166899   5.865   4.508   4.298
18280SOL    HW266900   5.732   4.526   4.204
18281SOL     OW66901   6.528   5.473   4.276
18281SOL    HW166902   6.528   5.373   4.279
18281SOL    HW266903   6.452   5.506   4.221
18282SOL     OW66904   7.350   5.310   4.103
18282SOL    HW166905   7.444   5.337   4.082
18282SOL    HW266906   7.290   5.335   4.028
18283SOL     OW66907   7.221   3.993   4.791
18283SOL    HW166908   7.262   4.083   4.806
18283SOL    HW266909   7.122   4.001   4.786
18284SOL     OW66910   6.604   4.066   4.052
18284SOL    HW166911   6.655   4.152   4.056
18284SOL    HW266912   6.609   4.020   4.140
18285SOL     OW66913   5.692   4.682   5.276
18285SOL    HW166914   5.786   4.714   5.288
18285SOL    HW266915   5.653   4.659   5.366
18286SOL     OW66916   6.088   4.387   3.750
18286SOL    HW166917   6.059   4.482   3.744
18286SOL    HW266918   6.170   4.374   3.694
18287SOL     OW66919   6.669   4.369   5.272
18287SOL    HW166920   6.747   4.322   5.314
18287SOL    HW266921   6.698   4.412   5.187
18288SOL     OW66922   7.197   5.088   4.497
18288SOL    HW166923   7.230   5.113   4.589
18288SOL    HW266924   7.201   5.168   4.438
18289SOL     OW66925   5.836   4.966   4.138
18289SOL    HW166926   5.890   4.957   4.222
18289SOL    HW266927   5.880   4.914   4.065
18290SOL     OW66928   6.720   3.970   3.826
18290SOL    HW166929   6.793   3.906   3.850
18290SOL    HW266930   6.675   4.001   3.909
18291SOL     OW66931   5.958   4.227   4.905
18291SOL    HW166932   5.998   4.170   4.833
18291SOL    HW266933   5.862   4.245   4.883
18292SOL     OW66934   7.057   4.510   4.950
18292SOL    HW166935   7.054   4.608   4.971
18292SOL    HW266936   7.130   4.467   5.003
18293SOL     OW66937   5.934   3.970   4.145
18293SOL    HW166938   5.942   4.045   4.210
18293SOL    HW266939   5.894   4.004   4.060
18294SOL     OW66940   7.117   5.427   4.987
18294SOL    HW166941   7.044   5.439   4.920
18294SOL    HW266942   7.205   5.425   4.941
18295SOL     OW66943   7.337   4.235   4.846
18295SOL    HW166944   7.433   4.212   4.856
18295SOL    HW266945   7.302   4.273   4.932
18296SOL     OW66946   7.366   5.426   4.855
18296SOL    HW166947   7.398   5.457   4.945
18296SOL    HW266948   7.438   5.441   4.788
18297SOL     OW66949   6.486   4.188   4.385
18297SOL    HW166950   6.560   4.217   4.446
18297SOL    HW266951   6.430   4.268   4.361
18298SOL     OW66952   6.757   4.698   3.815
18298SOL    HW166953   6.755   4.643   3.898
18298SOL    HW266954   6.688   4.664   3.751
18299SOL     OW66955   6.694   4.062   5.510
18299SOL    HW166956   6.717   4.070   5.607
18299SOL    HW266957   6.609   4.112   5.492
18300SOL     OW66958   7.270   4.385   4.069
18300SOL    HW166959   7.231   4.296   4.095
18300SOL    HW266960   7.343   4.409   4.133
18301SOL     OW66961   6.540   5.485   3.843
18301SOL    HW166962   6.569   5.430   3.764
18301SOL    HW266963   6.561   5.435   3.927
18302SOL     OW66964   6.278   3.733   5.408
18302SOL    HW166965   6.314   3.645   5.379
18302SOL    HW266966   6.312   3.755   5.499
18303SOL     OW66967   7.251   4.335   4.604
18303SOL    HW166968   7.203   4.422   4.615
18303SOL    HW266969   7.279   4.300   4.693
18304SOL     OW66970   6.935   3.648   4.582
18304SOL    HW166971   6.885   3.734   4.589
18304SOL    HW266972   7.022   3.664   4.534
18305SOL     OW66973   7.250   3.891   5.448
18305SOL    HW166974   7.207   3.917   5.534
18305SOL    HW266975   7.223   3.798   5.424
18306SOL     OW66976   5.509   4.334   4.263
18306SOL    HW166977   5.541   4.283   4.343
18306SOL    HW266978   5.527   4.431   4.277
18307SOL     OW66979   6.690   4.519   4.557
18307SOL    HW166980   6.679   4.557   4.465
18307SOL    HW266981   6.695   4.419   4.551
18308SOL     OW66982   5.735   5.220   4.059
18308SOL    HW166983   5.771   5.128   4.076
18308SOL    HW266984   5.790   5.265   3.989
18309SOL     OW66985   6.987   5.065   4.937
18309SOL    HW166986   6.950   5.098   4.850
18309SOL    HW266987   6.958   5.126   5.011
18310SOL     OW66988   5.715   5.309   4.320
18310SOL    HW166989   5.621   5.314   4.351
18310SOL    HW266990   5.717   5.284   4.223
18311SOL     OW66991   7.258   5.071   4.983
18311SOL    HW166992   7.278   5.121   5.067
18311SOL    HW266993   7.159   5.065   4.971
18312SOL     OW66994   6.054   4.660   3.732
18312SOL    HW166995   6.026   4.704   3.647
18312SOL    HW266996   6.026   4.716   3.810
18313SOL     OW66997   5.658   4.497   3.881
18313SOL    HW166998   5.736   4.435   3.892
18313SOL    HW266999   5.579   4.459   3.929
18314SOL     OW67000   7.066   4.573   4.069
18314SOL    HW167001   7.134   4.500   4.070
18314SOL    HW267002   7.096   4.646   4.008
18315SOL     OW67003   6.325   4.611   3.775
18315SOL    HW167004   6.342   4.518   3.805
18315SOL    HW267005   6.229   4.621   3.748
18316SOL     OW67006   6.908   4.110   4.142
18316SOL    HW167007   6.858   4.180   4.091
18316SOL    HW267008   7.006   4.129   4.140
18317SOL     OW67009   5.933   4.329   5.157
18317SOL    HW167010   5.942   4.281   5.070
18317SOL    HW267011   5.964   4.269   5.231
18318SOL     OW67012   6.616   4.505   4.822
18318SOL    HW167013   6.648   4.517   4.728
18318SOL    HW267014   6.535   4.562   4.837
18319SOL     OW67015   7.181   4.135   4.155
18319SOL    HW167016   7.270   4.096   4.133
18319SOL    HW267017   7.170   4.139   4.254
18320SOL     OW67018   6.361   4.082   3.936
18320SOL    HW167019   6.295   4.044   4.001
18320SOL    HW267020   6.453   4.079   3.976
18321SOL     OW67021   6.513   4.992   3.820
18321SOL    HW167022   6.566   4.971   3.902
18321SOL    HW267023   6.573   4.990   3.740
18322SOL     OW67024   7.204   5.314   4.343
18322SOL    HW167025   7.207   5.409   4.374
18322SOL    HW267026   7.253   5.306   4.256
18323SOL     OW67027   6.684   4.637   4.301
18323SOL    HW167028   6.741   4.707   4.342
18323SOL    HW267029   6.597   4.678   4.272
18324SOL     OW67030   6.386   5.346   5.386
18324SOL    HW167031   6.346   5.295   5.310
18324SOL    HW267032   6.374   5.296   5.471
18325SOL     OW67033   6.859   4.740   4.491
18325SOL    HW167034   6.818   4.671   4.551
18325SOL    HW267035   6.932   4.787   4.540
18326SOL     OW67036   5.875   4.789   4.573
18326SOL    HW167037   5.780   4.813   4.597
18326SOL    HW267038   5.930   4.785   4.656
18327SOL     OW67039   6.441   4.732   4.218
18327SOL    HW167040   6.398   4.658   4.167
18327SOL    HW267041   6.375   4.771   4.282
18328SOL     OW67042   5.619   3.970   4.080
18328SOL    HW167043   5.687   4.011   4.019
18328SOL    HW267044   5.646   3.986   4.175
18329SOL     OW67045   7.216   5.438   3.891
18329SOL    HW167046   7.302   5.490   3.886
18329SOL    HW267047   7.198   5.395   3.803
18330SOL     OW67048   5.487   5.492   5.051
18330SOL    HW167049   5.461   5.588   5.039
18330SOL    HW267050   5.520   5.478   5.145
18331SOL     OW67051   6.311   4.525   4.087
18331SOL    HW167052   6.215   4.548   4.070
18331SOL    HW267053   6.347   4.471   4.011
18332SOL     OW67054   5.864   4.169   4.552
18332SOL    HW167055   5.904   4.175   4.460
18332SOL    HW267056   5.935   4.144   4.617
18333SOL     OW67057   5.855   5.458   3.901
18333SOL    HW167058   5.946   5.490   3.875
18333SOL    HW267059   5.831   5.493   3.991
18334SOL     OW67060   6.914   5.435   4.800
18334SOL    HW167061   6.925   5.492   4.718
18334SOL    HW267062   6.893   5.341   4.772
18335SOL     OW67063   5.629   4.850   4.686
18335SOL    HW167064   5.545   4.846   4.631
18335SOL    HW267065   5.622   4.785   4.761
18336SOL     OW67066   6.319   3.706   4.127
18336SOL    HW167067   6.295   3.652   4.047
18336SOL    HW267068   6.283   3.799   4.117
18337SOL     OW67069   5.575   4.866   4.178
18337SOL    HW167070   5.659   4.919   4.192
18337SOL    HW267071   5.574   4.830   4.084
18338SOL     OW67072   7.113   3.980   5.222
18338SOL    HW167073   7.083   4.074   5.209
18338SOL    HW267074   7.160   3.972   5.310
18339SOL     OW67075   6.824   3.899   4.606
18339SOL    HW167076   6.837   3.958   4.526
18339SOL    HW267077   6.866   3.942   4.686
18340SOL     OW67078   6.931   3.798   3.882
18340SOL    HW167079   6.950   3.702   3.860
18340SOL    HW267080   6.900   3.805   3.977
18341SOL     OW67081   7.126   3.699   5.258
18341SOL    HW167082   7.115   3.651   5.171
18341SOL    HW267083   7.097   3.794   5.247
18342SOL     OW67084   6.246   4.048   4.385
18342SOL    HW167085   6.227   3.979   4.454
18342SOL    HW267086   6.338   4.085   4.399
18343SOL     OW67087   6.951   4.321   4.776
18343SOL    HW167088   6.958   4.363   4.686
18343SOL    HW267089   6.992   4.380   4.845
18344SOL     OW67090   7.118   3.732   4.151
18344SOL    HW167091   7.139   3.689   4.063
18344SOL    HW267092   7.024   3.766   4.149
18345SOL     OW67093   5.947   4.766   5.323
18345SOL    HW167094   6.022   4.812   5.274
18345SOL    HW267095   5.918   4.822   5.400
18346SOL     OW67096   5.656   5.076   4.845
18346SOL    HW167097   5.650   5.003   4.777
18346SOL    HW267098   5.569   5.081   4.895
18347SOL     OW67099   6.694   4.247   4.549
18347SOL    HW167100   6.769   4.189   4.517
18347SOL    HW267101   6.664   4.216   4.639
18348SOL     OW67102   7.354   4.312   5.349
18348SOL    HW167103   7.349   4.411   5.335
18348SOL    HW267104   7.446   4.287   5.377
18349SOL     OW67105   6.951   4.049   4.799
18349SOL    HW167106   6.947   4.148   4.789
18349SOL    HW267107   6.921   4.024   4.891
18350SOL     OW67108   7.129   4.191   5.463
18350SOL    HW167109   7.215   4.229   5.430
18350SOL    HW267110   7.147   4.122   5.532
18351SOL     OW67111   6.793   4.559   4.059
18351SOL    HW167112   6.752   4.589   4.145
18351SOL    HW267113   6.892   4.569   4.064
18352SOL     OW67114   7.073   4.664   4.328
18352SOL    HW167115   7.061   4.633   4.234
18352SOL    HW267116   6.984   4.683   4.369
18353SOL     OW67117   7.314   4.573   5.279
18353SOL    HW167118   7.230   4.612   5.316
18353SOL    HW267119   7.351   4.634   5.209
18354SOL     OW67120   7.119   4.012   3.860
18354SOL    HW167121   7.136   4.052   3.950
18354SOL    HW267122   7.052   3.938   3.868
18355SOL     OW67123   6.250   5.211   5.195
18355SOL    HW167124   6.185   5.286   5.183
18355SOL    HW267125   6.231   5.140   5.127
18356SOL     OW67126   5.555   5.426   5.319
18356SOL    HW167127   5.642   5.445   5.366
18356SOL    HW267128   5.480   5.428   5.386
18357SOL     OW67129   5.690   4.011   4.338
18357SOL    HW167130   5.647   4.084   4.391
18357SOL    HW267131   5.759   3.966   4.393
18358SOL     OW67132   6.964   5.260   5.147
18358SOL    HW167133   6.897   5.321   5.189
18358SOL    HW267134   7.030   5.313   5.094
18359SOL     OW67135   5.881   4.334   3.934
18359SOL    HW167136   5.960   4.354   3.876
18359SOL    HW267137   5.892   4.380   4.023
18360SOL     OW67138   7.306   3.898   5.041
18360SOL    HW167139   7.232   3.927   5.102
18360SOL    HW267140   7.280   3.915   4.947
18361SOL     OW67141   5.893   5.514   4.373
18361SOL    HW167142   5.821   5.445   4.370
18361SOL    HW267143   5.981   5.469   4.390
18362SOL     OW67144   5.910   5.011   4.945
18362SOL    HW167145   5.905   5.037   5.042
18362SOL    HW267146   5.825   5.037   4.899
18363SOL     OW67147   6.304   5.018   4.155
18363SOL    HW167148   6.321   4.958   4.077
18363SOL    HW267149   6.282   4.963   4.236
18364SOL     OW67150   5.924   4.537   4.460
18364SOL    HW167151   5.910   4.631   4.493
18364SOL    HW267152   6.013   4.503   4.491
18365SOL     OW67153   5.815   4.064   3.915
18365SOL    HW167154   5.841   4.021   3.829
18365SOL    HW267155   5.835   4.162   3.911
18366SOL     OW67156   5.601   4.221   4.493
18366SOL    HW167157   5.545   4.279   4.552
18366SOL    HW267158   5.692   4.212   4.532
18367SOL     OW67159   6.036   4.842   3.948
18367SOL    HW167160   6.136   4.846   3.952
18367SOL    HW267161   6.002   4.926   3.906
18368SOL     OW67162   6.658   4.358   3.755
18368SOL    HW167163   6.634   4.448   3.717
18368SOL    HW267164   6.721   4.311   3.693
18369SOL     OW67165   6.403   4.361   3.880
18369SOL    HW167166   6.496   4.357   3.841
18369SOL    HW267167   6.367   4.268   3.889
18370SOL     OW67168   6.859   3.842   4.142
18370SOL    HW167169   6.776   3.821   4.194
18370SOL    HW267170   6.876   3.940   4.145
18371SOL     OW67171   6.986   4.218   5.139
18371SOL    HW167172   6.941   4.239   5.226
18371SOL    HW267173   6.932   4.152   5.089
18372SOL     OW67174   5.602   3.780   3.842
18372SOL    HW167175   5.686   3.737   3.875
18372SOL    HW267176   5.588   3.866   3.892
18373SOL     OW67177   6.008   4.778   4.817
18373SOL    HW167178   5.993   4.700   4.878
18373SOL    HW267179   5.975   4.861   4.861
18374SOL     OW67180   7.178   4.743   3.892
18374SOL    HW167181   7.275   4.750   3.913
18374SOL    HW267182   7.165   4.738   3.793
18375SOL     OW67183   6.168   4.408   4.933
18375SOL    HW167184   6.149   4.477   5.003
18375SOL    HW267185   6.089   4.347   4.923
18376SOL     OW67186   6.611   3.958   4.301
18376SOL    HW167187   6.568   4.044   4.328
18376SOL    HW267188   6.594   3.889   4.372
18377SOL     OW67189   6.784   5.441   5.256
18377SOL    HW167190   6.694   5.399   5.268
18377SOL    HW267191   6.785   5.531   5.301
18378SOL     OW67192   6.178   3.865   4.578
18378SOL    HW167193   6.111   3.807   4.531
18378SOL    HW267194   6.252   3.809   4.614
18379SOL     OW67195   6.188   4.716   4.599
18379SOL    HW167196   6.189   4.618   4.582
18379SOL    HW267197   6.135   4.735   4.682
18380SOL     OW67198   5.585   4.675   4.895
18380SOL    HW167199   5.639   4.605   4.942
18380SOL    HW267200   5.505   4.633   4.854
18381SOL     OW67201   5.844   3.718   4.219
18381SOL    HW167202   5.875   3.811   4.195
18381SOL    HW267203   5.744   3.714   4.215
18382SOL     OW67204   5.616   4.769   3.928
18382SOL    HW167205   5.647   4.675   3.910
18382SOL    HW267206   5.669   4.833   3.872
18383SOL     OW67207   7.311   3.919   4.537
18383SOL    HW167208   7.285   3.934   4.633
18383SOL    HW267209   7.409   3.903   4.531
18384SOL     OW67210   6.753   4.294   4.006
18384SOL    HW167211   6.768   4.387   4.042
18384SOL    HW267212   6.721   4.299   3.912
18385SOL     OW67213   7.078   5.164   5.384
18385SOL    HW167214   7.034   5.085   5.425
18385SOL    HW267215   7.029   5.189   5.300
18386SOL     OW67216   5.729   4.500   5.077
18386SOL    HW167217   5.800   4.439   5.112
18386SOL    HW267218   5.710   4.572   5.144
18387SOL     OW67219   6.353   5.188   3.709
18387SOL    HW167220   6.310   5.247   3.776
18387SOL    HW267221   6.415   5.125   3.756
18388SOL     OW67222   6.270   4.874   4.395
18388SOL    HW167223   6.331   4.942   4.435
18388SOL    HW267224   6.239   4.810   4.466
18389SOL     OW67225   6.521   5.193   4.237
18389SOL    HW167226   6.577   5.209   4.156
18389SOL    HW267227   6.444   5.134   4.213
18390SOL     OW67228   5.732   4.469   4.656
18390SOL    HW167229   5.792   4.483   4.577
18390SOL    HW267230   5.637   4.467   4.625
18391SOL     OW67231   5.553   4.614   5.498
18391SOL    HW167232   5.475   4.588   5.442
18391SOL    HW267233   5.520   4.666   5.577
18392SOL     OW67234   6.041   4.156   5.339
18392SOL    HW167235   6.090   4.072   5.315
18392SOL    HW267236   6.070   4.186   5.430
18393SOL     OW67237   6.047   4.590   4.064
18393SOL    HW167238   6.033   4.682   4.027
18393SOL    HW267239   5.967   4.563   4.117
18394SOL     OW67240   7.114   4.564   4.673
18394SOL    HW167241   7.123   4.657   4.638
18394SOL    HW267242   7.096   4.566   4.771
18395SOL     OW67243   6.881   3.978   5.052
18395SOL    HW167244   6.948   3.951   5.120
18395SOL    HW267245   6.817   3.903   5.036
18396SOL     OW67246   5.571   3.706   4.136
18396SOL    HW167247   5.474   3.695   4.156
18396SOL    HW267248   5.589   3.800   4.109
18397SOL     OW67249   6.834   3.830   5.451
18397SOL    HW167250   6.876   3.805   5.538
18397SOL    HW267251   6.780   3.913   5.463
18398SOL     OW67252   5.959   5.293   5.401
18398SOL    HW167253   5.890   5.361   5.425
18398SOL    HW267254   6.022   5.333   5.334
18399SOL     OW67255   7.305   5.194   5.218
18399SOL    HW167256   7.365   5.266   5.251
18399SOL    HW267257   7.233   5.177   5.286
18400SOL     OW67258   6.566   4.233   4.802
18400SOL    HW167259   6.590   4.329   4.819
18400SOL    HW267260   6.599   4.177   4.878
18401SOL     OW67261   5.970   5.204   4.310
18401SOL    HW167262   5.977   5.109   4.341
18401SOL    HW267263   5.877   5.237   4.325
18402SOL     OW67264   5.779   5.486   5.483
18402SOL    HW167265   5.819   5.577   5.478
18402SOL    HW267266   5.761   5.462   5.578
18403SOL     OW67267   5.651   4.980   5.295
18403SOL    HW167268   5.630   4.889   5.260
18403SOL    HW267269   5.578   5.044   5.267
18404SOL     OW67270   6.563   3.821   4.533
18404SOL    HW167271   6.650   3.840   4.580
18404SOL    HW267272   6.498   3.782   4.597
18405SOL     OW67273   6.603   4.906   4.066
18405SOL    HW167274   6.691   4.913   4.113
18405SOL    HW267275   6.543   4.845   4.117
18406SOL     OW67276   7.168   4.134   4.431
18406SOL    HW167277   7.192   4.213   4.487
18406SOL    HW267278   7.218   4.054   4.463
18407SOL     OW67279   6.310   4.847   3.926
18407SOL    HW167280   6.382   4.906   3.889
18407SOL    HW267281   6.325   4.753   3.896
18408SOL     OW67282   6.344   3.817   3.831
18408SOL    HW167283   6.420   3.754   3.849
18408SOL    HW267284   6.368   3.909   3.865
18409SOL     OW67285   6.012   4.176   4.319
18409SOL    HW167286   6.096   4.131   4.349
18409SOL    HW267287   6.028   4.274   4.310
18410SOL     OW67288   6.149   4.845   5.164
18410SOL    HW167289   6.163   4.757   5.118
18410SOL    HW267290   6.171   4.919   5.100
18411SOL     OW67291   7.252   4.818   5.118
18411SOL    HW167292   7.297   4.900   5.085
18411SOL    HW267293   7.172   4.798   5.060
18412SOL     OW67294   5.754   4.946   3.779
18412SOL    HW167295   5.727   4.960   3.683
18412SOL    HW267296   5.828   5.010   3.801
18413SOL     OW67297   6.206   5.344   3.869
18413SOL    HW167298   6.163   5.434   3.856
18413SOL    HW267299   6.173   5.303   3.954
18414SOL     OW67300   6.853   4.702   5.194
18414SOL    HW167301   6.823   4.621   5.144
18414SOL    HW267302   6.791   4.719   5.271
18415SOL     OW67303   6.076   5.421   5.174
18415SOL    HW167304   6.120   5.510   5.160
18415SOL    HW267305   6.001   5.411   5.109
18416SOL     OW67306   7.286   5.184   4.737
18416SOL    HW167307   7.297   5.280   4.763
18416SOL    HW267308   7.270   5.129   4.819
18417SOL     OW67309   5.551   4.606   4.283
18417SOL    HW167310   5.576   4.696   4.247
18417SOL    HW267311   5.464   4.613   4.331
18418SOL     OW67312   6.054   4.573   5.135
18418SOL    HW167313   6.012   4.483   5.150
18418SOL    HW267314   6.021   4.637   5.204
18419SOL     OW67315   7.121   4.820   4.556
18419SOL    HW167316   7.150   4.915   4.546
18419SOL    HW267317   7.126   4.774   4.467
18420SOL     OW67318   6.297   4.284   4.727
18420SOL    HW167319   6.392   4.258   4.744
18420SOL    HW267320   6.261   4.334   4.806
18421SOL     OW67321   6.180   5.045   4.979
18421SOL    HW167322   6.082   5.040   4.961
18421SOL    HW267323   6.229   5.062   4.893
18422SOL     OW67324   5.700   4.320   4.877
18422SOL    HW167325   5.704   4.384   4.953
18422SOL    HW267326   5.715   4.369   4.791
18423SOL     OW67327   5.882   5.102   5.201
18423SOL    HW167328   5.921   5.156   5.275
18423SOL    HW267329   5.801   5.053   5.235
18424SOL     OW67330   7.182   5.411   5.467
18424SOL    HW167331   7.146   5.318   5.457
18424SOL    HW267332   7.158   5.465   5.387
18425SOL     OW67333   6.859   4.903   4.171
18425SOL    HW167334   6.943   4.928   4.218
18425SOL    HW267335   6.878   4.895   4.073
18426SOL     OW67336   6.207   3.962   4.127
18426SOL    HW167337   6.108   3.951   4.121
18426SOL    HW267338   6.233   3.984   4.221
18427SOL     OW67339   7.157   3.712   4.428
18427SOL    HW167340   7.139   3.726   4.331
18427SOL    HW267341   7.213   3.787   4.463
18428SOL     OW67342   6.784   4.484   5.042
18428SOL    HW167343   6.877   4.464   5.011
18428SOL    HW267344   6.723   4.491   4.963
18429SOL     OW67345   6.181   4.446   4.531
18429SOL    HW167346   6.217   4.388   4.603
18429SOL    HW267347   6.218   4.416   4.443
18430SOL     OW67348   6.884   5.178   4.695
18430SOL    HW167349   6.793   5.160   4.658
18430SOL    HW267350   6.948   5.198   4.620
18431SOL     OW67351   6.892   4.098   4.425
18431SOL    HW167352   6.872   4.098   4.327
18431SOL    HW267353   6.990   4.112   4.438
18432SOL     OW67354   6.617   5.172   6.290
18432SOL    HW167355   6.713   5.200   6.294
18432SOL    HW267356   6.584   5.181   6.196
18433SOL     OW67357   7.166   4.950   6.133
18433SOL    HW167358   7.168   5.026   6.198
18433SOL    HW267359   7.260   4.921   6.113
18434SOL     OW67360   7.168   4.322   6.972
18434SOL    HW167361   7.080   4.280   6.996
18434SOL    HW267362   7.224   4.331   7.054
18435SOL     OW67363   6.884   5.247   6.330
18435SOL    HW167364   6.897   5.343   6.356
18435SOL    HW267365   6.973   5.204   6.314
18436SOL     OW67366   6.727   3.764   6.862
18436SOL    HW167367   6.655   3.717   6.913
18436SOL    HW267368   6.768   3.701   6.796
18437SOL     OW67369   6.519   4.607   7.272
18437SOL    HW167370   6.481   4.629   7.182
18437SOL    HW267371   6.447   4.616   7.341
18438SOL     OW67372   6.121   5.178   5.933
18438SOL    HW167373   6.062   5.179   6.014
18438SOL    HW267374   6.193   5.109   5.945
18439SOL     OW67375   6.090   3.719   5.658
18439SOL    HW167376   6.182   3.758   5.670
18439SOL    HW267377   6.050   3.754   5.574
18440SOL     OW67378   7.137   4.756   7.065
18440SOL    HW167379   7.040   4.780   7.054
18440SOL    HW267380   7.184   4.768   6.978
18441SOL     OW67381   6.985   4.745   6.785
18441SOL    HW167382   6.930   4.752   6.868
18441SOL    HW267383   7.015   4.836   6.757
18442SOL     OW67384   6.490   5.037   7.042
18442SOL    HW167385   6.413   5.095   7.019
18442SOL    HW267386   6.515   4.982   6.962
18443SOL     OW67387   6.035   4.922   6.280
18443SOL    HW167388   5.997   4.866   6.354
18443SOL    HW267389   6.132   4.899   6.267
18444SOL     OW67390   6.268   4.357   6.105
18444SOL    HW167391   6.307   4.436   6.057
18444SOL    HW267392   6.237   4.290   6.039
18445SOL     OW67393   6.801   4.217   7.290
18445SOL    HW167394   6.898   4.212   7.312
18445SOL    HW267395   6.751   4.148   7.343
18446SOL     OW67396   5.901   5.178   5.652
18446SOL    HW167397   5.932   5.215   5.565
18446SOL    HW267398   5.979   5.166   5.713
18447SOL     OW67399   6.106   4.009   6.573
18447SOL    HW167400   6.166   4.089   6.575
18447SOL    HW267401   6.153   3.933   6.528
18448SOL     OW67402   6.357   5.393   6.167
18448SOL    HW167403   6.412   5.324   6.120
18448SOL    HW267404   6.360   5.479   6.115
18449SOL     OW67405   7.320   5.306   5.952
18449SOL    HW167406   7.418   5.288   5.950
18449SOL    HW267407   7.294   5.359   5.871
18450SOL     OW67408   7.194   4.031   6.663
18450SOL    HW167409   7.239   4.117   6.686
18450SOL    HW267410   7.095   4.044   6.656
18451SOL     OW67411   6.598   4.033   5.980
18451SOL    HW167412   6.555   4.095   6.045
18451SOL    HW267413   6.639   3.956   6.029
18452SOL     OW67414   5.740   4.763   7.194
18452SOL    HW167415   5.831   4.795   7.220
18452SOL    HW267416   5.701   4.708   7.268
18453SOL     OW67417   6.150   5.314   6.318
18453SOL    HW167418   6.224   5.352   6.262
18453SOL    HW267419   6.097   5.249   6.264
18454SOL     OW67420   6.546   4.320   7.106
18454SOL    HW167421   6.596   4.254   7.163
18454SOL    HW267422   6.611   4.370   7.048
18455SOL     OW67423   7.151   5.143   6.343
18455SOL    HW167424   7.158   5.166   6.440
18455SOL    HW267425   7.205   5.209   6.289
18456SOL     OW67426   6.761   4.092   5.767
18456SOL    HW167427   6.854   4.100   5.803
18456SOL    HW267428   6.698   4.072   5.842
18457SOL     OW67429   5.946   4.216   6.879
18457SOL    HW167430   5.934   4.121   6.850
18457SOL    HW267431   5.881   4.275   6.830
18458SOL     OW67432   6.973   4.471   6.831
18458SOL    HW167433   6.988   4.569   6.817
18458SOL    HW267434   7.051   4.433   6.880
18459SOL     OW67435   5.897   4.045   6.103
18459SOL    HW167436   5.821   4.028   6.166
18459SOL    HW267437   5.957   4.115   6.142
18460SOL     OW67438   7.099   5.404   6.867
18460SOL    HW167439   7.025   5.401   6.800
18460SOL    HW267440   7.187   5.409   6.820
18461SOL     OW67441   7.296   4.273   6.735
18461SOL    HW167442   7.392   4.302   6.738
18461SOL    HW267443   7.252   4.294   6.822
18462SOL     OW67444   7.347   5.418   6.734
18462SOL    HW167445   7.390   5.444   6.820
18462SOL    HW267446   7.418   5.406   6.664
18463SOL     OW67447   6.481   4.189   6.164
18463SOL    HW167448   6.539   4.211   6.242
18463SOL    HW267449   6.412   4.261   6.153
18464SOL     OW67450   6.766   4.701   5.711
18464SOL    HW167451   6.741   4.620   5.764
18464SOL    HW267452   6.776   4.676   5.614
18465SOL     OW67453   6.641   4.048   7.440
18465SOL    HW167454   6.657   4.030   7.537
18465SOL    HW267455   6.544   4.070   7.425
18466SOL     OW67456   6.522   5.547   5.793
18466SOL    HW167457   6.560   5.455   5.805
18466SOL    HW267458   6.471   5.572   5.876
18467SOL     OW67459   6.308   3.709   7.315
18467SOL    HW167460   6.326   3.631   7.256
18467SOL    HW267461   6.365   3.704   7.397
18468SOL     OW67462   7.190   4.360   6.496
18468SOL    HW167463   7.156   4.453   6.503
18468SOL    HW267464   7.220   4.328   6.587
18469SOL     OW67465   6.642   5.030   7.277
18469SOL    HW167466   6.688   4.942   7.271
18469SOL    HW267467   6.582   5.042   7.198
18470SOL     OW67468   6.307   4.856   7.272
18470SOL    HW167469   6.252   4.938   7.284
18470SOL    HW267470   6.305   4.801   7.356
18471SOL     OW67471   6.924   3.666   6.418
18471SOL    HW167472   6.880   3.755   6.434
18471SOL    HW267473   7.005   3.679   6.360
18472SOL     OW67474   7.273   3.914   7.314
18472SOL    HW167475   7.232   3.950   7.398
18472SOL    HW267476   7.271   3.814   7.317
18473SOL     OW67477   5.432   4.366   6.109
18473SOL    HW167478   5.480   4.327   6.188
18473SOL    HW267479   5.497   4.388   6.037
18474SOL     OW67480   5.904   3.902   6.406
18474SOL    HW167481   5.972   3.938   6.470
18474SOL    HW267482   5.946   3.829   6.352
18475SOL     OW67483   5.928   3.952   6.788
18475SOL    HW167484   5.923   3.853   6.800
18475SOL    HW267485   5.990   3.974   6.713
18476SOL     OW67486   6.515   4.559   6.479
18476SOL    HW167487   6.556   4.600   6.397
18476SOL    HW267488   6.431   4.511   6.454
18477SOL     OW67489   5.730   5.289   5.857
18477SOL    HW167490   5.773   5.224   5.795
18477SOL    HW267491   5.767   5.381   5.840
18478SOL     OW67492   7.018   5.025   6.769
18478SOL    HW167493   6.979   5.062   6.685
18478SOL    HW267494   6.954   5.038   6.845
18479SOL     OW67495   5.732   5.283   6.145
18479SOL    HW167496   5.637   5.278   6.176
18479SOL    HW267497   5.734   5.288   6.045
18480SOL     OW67498   7.286   5.059   6.809
18480SOL    HW167499   7.314   5.096   6.897
18480SOL    HW267500   7.187   5.043   6.809
18481SOL     OW67501   6.507   4.841   6.828
18481SOL    HW167502   6.540   4.749   6.806
18481SOL    HW267503   6.441   4.870   6.758
18482SOL     OW67504   7.092   4.503   6.047
18482SOL    HW167505   7.180   4.468   6.079
18482SOL    HW267506   7.107   4.569   5.974
18483SOL     OW67507   6.475   5.521   6.566
18483SOL    HW167508   6.462   5.430   6.528
18483SOL    HW267509   6.456   5.520   6.664
18484SOL     OW67510   7.005   4.114   5.906
18484SOL    HW167511   6.956   4.195   5.937
18484SOL    HW267512   7.094   4.108   5.952
18485SOL     OW67513   5.884   4.367   7.099
18485SOL    HW167514   5.913   4.303   7.028
18485SOL    HW267515   5.827   4.319   7.166
18486SOL     OW67516   5.693   3.915   6.976
18486SOL    HW167517   5.764   3.945   6.912
18486SOL    HW267518   5.605   3.952   6.948
18487SOL     OW67519   6.558   4.583   6.749
18487SOL    HW167520   6.548   4.574   6.649
18487SOL    HW267521   6.485   4.533   6.794
18488SOL     OW67522   7.227   4.127   6.061
18488SOL    HW167523   7.307   4.067   6.061
18488SOL    HW267524   7.191   4.134   6.154
18489SOL     OW67525   6.429   5.276   6.464
18489SOL    HW167526   6.499   5.242   6.402
18489SOL    HW267527   6.340   5.272   6.420
18490SOL     OW67528   6.382   4.057   5.818
18490SOL    HW167529   6.301   4.040   5.874
18490SOL    HW267530   6.464   4.039   5.872
18491SOL     OW67531   7.294   5.336   6.220
18491SOL    HW167532   7.251   5.423   6.243
18491SOL    HW267533   7.298   5.326   6.121
18492SOL     OW67534   6.386   5.338   7.175
18492SOL    HW167535   6.337   5.283   7.107
18492SOL    HW267536   6.386   5.289   7.263
18493SOL     OW67537   6.849   4.633   6.463
18493SOL    HW167538   6.941   4.627   6.502
18493SOL    HW267539   6.854   4.619   6.364
18494SOL     OW67540   5.918   4.766   6.492
18494SOL    HW167541   5.838   4.817   6.460
18494SOL    HW267542   5.915   4.758   6.592
18495SOL     OW67543   6.494   4.648   6.193
18495SOL    HW167544   6.463   4.601   6.110
18495SOL    HW267545   6.426   4.717   6.218
18496SOL     OW67546   6.821   5.083   6.949
18496SOL    HW167547   6.870   5.148   7.008
18496SOL    HW267548   6.744   5.130   6.906
18497SOL     OW67549   5.577   4.050   6.051
18497SOL    HW167550   5.654   4.089   6.000
18497SOL    HW267551   5.604   4.039   6.147
18498SOL     OW67552   7.231   5.476   5.741
18498SOL    HW167553   7.317   5.526   5.735
18498SOL    HW267554   7.203   5.447   5.649
18499SOL     OW67555   6.381   4.465   6.928
18499SOL    HW167556   6.363   4.550   6.977
18499SOL    HW267557   6.433   4.403   6.987
18500SOL     OW67558   5.621   5.554   6.938
18500SOL    HW167559   5.570   5.640   6.936
18500SOL    HW267560   5.606   5.509   7.026
18501SOL     OW67561   6.400   4.537   5.950
18501SOL    HW167562   6.409   4.628   5.908
18501SOL    HW267563   6.427   4.467   5.884
18502SOL     OW67564   5.860   4.275   6.414
18502SOL    HW167565   5.930   4.258   6.345
18502SOL    HW267566   5.874   4.212   6.491
18503SOL     OW67567   5.837   5.533   5.792
18503SOL    HW167568   5.925   5.551   5.747
18503SOL    HW267569   5.843   5.561   5.888
18504SOL     OW67570   6.900   5.386   6.673
18504SOL    HW167571   6.921   5.429   6.585
18504SOL    HW267572   6.873   5.291   6.659
18505SOL     OW67573   5.673   4.890   6.457
18505SOL    HW167574   5.610   4.892   6.380
18505SOL    HW267575   5.638   4.829   6.528
18506SOL     OW67576   6.276   3.745   5.949
18506SOL    HW167577   6.304   3.741   5.853
18506SOL    HW267578   6.234   3.834   5.967
18507SOL     OW67579   7.116   3.988   7.095
18507SOL    HW167580   7.064   4.074   7.102
18507SOL    HW267581   7.171   3.976   7.178
18508SOL     OW67582   6.831   3.928   6.460
18508SOL    HW167583   6.848   3.985   6.379
18508SOL    HW267584   6.863   3.976   6.542
18509SOL     OW67585   6.947   3.756   5.693
18509SOL    HW167586   6.942   3.656   5.690
18509SOL    HW267587   6.921   3.787   5.785
18510SOL     OW67588   7.124   3.709   7.096
18510SOL    HW167589   7.110   3.670   7.005
18510SOL    HW267590   7.109   3.808   7.093
18511SOL     OW67591   6.264   4.032   6.255
18511SOL    HW167592   6.259   3.954   6.317
18511SOL    HW267593   6.359   4.062   6.246
18512SOL     OW67594   6.817   4.361   6.634
18512SOL    HW167595   6.796   4.434   6.569
18512SOL    HW267596   6.874   4.398   6.708
18513SOL     OW67597   7.168   3.748   5.977
18513SOL    HW167598   7.201   3.703   5.894
18513SOL    HW267599   7.074   3.780   5.963
18514SOL     OW67600   6.131   5.092   7.310
18514SOL    HW167601   6.082   5.162   7.258
18514SOL    HW267602   6.216   5.131   7.345
18515SOL     OW67603   5.998   4.845   7.232
18515SOL    HW167604   6.042   4.824   7.145
18515SOL    HW267605   6.029   4.934   7.265
18516SOL     OW67606   5.712   5.116   6.617
18516SOL    HW167607   5.703   5.046   6.546
18516SOL    HW267608   5.629   5.117   6.674
18517SOL     OW67609   6.645   4.231   6.368
18517SOL    HW167610   6.731   4.183   6.352
18517SOL    HW267611   6.619   4.223   6.465
18518SOL     OW67612   7.300   4.324   7.228
18518SOL    HW167613   7.304   4.421   7.203
18518SOL    HW267614   7.393   4.290   7.245
18519SOL     OW67615   6.924   4.097   6.657
18519SOL    HW167616   6.890   4.191   6.649
18519SOL    HW267617   6.903   4.061   6.749
18520SOL     OW67618   7.070   4.191   7.336
18520SOL    HW167619   7.151   4.242   7.305
18520SOL    HW267620   7.096   4.132   7.412
18521SOL     OW67621   7.327   4.570   7.120
18521SOL    HW167622   7.252   4.635   7.111
18521SOL    HW267623   7.389   4.579   7.042
18522SOL     OW67624   7.107   3.981   5.664
18522SOL    HW167625   7.088   4.037   5.745
18522SOL    HW267626   7.053   3.898   5.668
18523SOL     OW67627   6.262   5.204   6.969
18523SOL    HW167628   6.201   5.281   6.953
18523SOL    HW267629   6.230   5.124   6.918
18524SOL     OW67630   5.684   3.950   7.251
18524SOL    HW167631   5.685   3.935   7.152
18524SOL    HW267632   5.591   3.936   7.286
18525SOL     OW67633   5.576   5.424   7.182
18525SOL    HW167634   5.663   5.432   7.230
18525SOL    HW267635   5.501   5.432   7.247
18526SOL     OW67636   5.693   4.027   6.290
18526SOL    HW167637   5.652   4.103   6.340
18526SOL    HW267638   5.755   3.977   6.350
18527SOL     OW67639   6.976   5.269   7.079
18527SOL    HW167640   6.905   5.331   7.111
18527SOL    HW267641   7.026   5.312   7.003
18528SOL     OW67642   7.305   3.931   6.901
18528SOL    HW167643   7.238   3.959   6.970
18528SOL    HW267644   7.270   3.951   6.810
18529SOL     OW67645   5.883   5.433   6.331
18529SOL    HW167646   5.825   5.389   6.263
18529SOL    HW267647   5.977   5.403   6.319
18530SOL     OW67648   5.909   5.018   6.783
18530SOL    HW167649   5.898   5.057   6.875
18530SOL    HW267650   5.842   5.059   6.721
18531SOL     OW67651   6.715   5.285   7.367
18531SOL    HW167652   6.684   5.194   7.341
18531SOL    HW267653   6.734   5.339   7.284
18532SOL     OW67654   6.324   4.981   6.007
18532SOL    HW167655   6.360   4.913   5.943
18532SOL    HW267656   6.307   4.938   6.096
18533SOL     OW67657   5.584   4.293   6.335
18533SOL    HW167658   5.523   4.345   6.394
18533SOL    HW267659   5.679   4.308   6.364
18534SOL     OW67660   6.605   4.377   5.542
18534SOL    HW167661   6.598   4.378   5.442
18534SOL    HW267662   6.692   4.416   5.570
18535SOL     OW67663   6.487   4.329   5.785
18535SOL    HW167664   6.518   4.345   5.691
18535SOL    HW267665   6.448   4.237   5.792
18536SOL     OW67666   6.916   3.851   5.948
18536SOL    HW167667   6.847   3.840   6.020
18536SOL    HW267668   6.941   3.948   5.940
18537SOL     OW67669   6.936   4.206   7.045
18537SOL    HW167670   6.878   4.224   7.125
18537SOL    HW267671   6.892   4.137   6.988
18538SOL     OW67672   5.861   4.750   6.763
18538SOL    HW167673   5.855   4.700   6.850
18538SOL    HW267674   5.882   4.846   6.781
18539SOL     OW67675   7.117   4.681   5.841
18539SOL    HW167676   7.060   4.762   5.849
18539SOL    HW267677   7.125   4.655   5.744
18540SOL     OW67678   6.193   4.315   6.787
18540SOL    HW167679   6.247   4.375   6.845
18540SOL    HW267680   6.109   4.289   6.834
18541SOL     OW67681   6.392   4.722   7.053
18541SOL    HW167682   6.440   4.775   6.983
18541SOL    HW267683   6.370   4.781   7.131
18542SOL     OW67684   6.740   4.771   7.260
18542SOL    HW167685   6.657   4.715   7.259
18542SOL    HW267686   6.798   4.742   7.336
18543SOL     OW67687   6.733   3.872   6.154
18543SOL    HW167688   6.782   3.950   6.194
18543SOL    HW267689   6.674   3.831   6.222
18544SOL     OW67690   6.765   5.436   7.143
18544SOL    HW167691   6.688   5.438   7.079
18544SOL    HW267692   6.787   5.530   7.172
18545SOL     OW67693   6.216   3.816   6.413
18545SOL    HW167694   6.158   3.770   6.346
18545SOL    HW267695   6.284   3.752   6.448
18546SOL     OW67696   5.872   5.541   6.816
18546SOL    HW167697   5.860   5.481   6.737
18546SOL    HW267698   5.787   5.545   6.869
18547SOL     OW67699   6.518   4.951   6.415
18547SOL    HW167700   6.552   5.033   6.368
18547SOL    HW267701   6.593   4.910   6.468
18548SOL     OW67702   6.192   4.693   6.461
18548SOL    HW167703   6.216   4.596   6.447
18548SOL    HW267704   6.094   4.701   6.476
18549SOL     OW67705   5.611   4.710   6.656
18549SOL    HW167706   5.700   4.721   6.700
18549SOL    HW267707   5.602   4.617   6.621
18550SOL     OW67708   5.858   3.783   6.018
18550SOL    HW167709   5.876   3.879   6.039
18550SOL    HW267710   5.760   3.768   6.008
18551SOL     OW67711   6.293   4.351   7.239
18551SOL    HW167712   6.236   4.410   7.182
18551SOL    HW267713   6.384   4.343   7.197
18552SOL     OW67714   7.255   3.931   6.409
18552SOL    HW167715   7.237   3.943   6.507
18552SOL    HW267716   7.352   3.947   6.390
18553SOL     OW67717   6.332   4.884   6.614
18553SOL    HW167718   6.283   4.808   6.572
18553SOL    HW267719   6.394   4.925   6.547
18554SOL     OW67720   7.138   5.110   7.233
18554SOL    HW167721   7.091   5.030   7.270
18554SOL    HW267722   7.076   5.162   7.175
18555SOL     OW67723   5.779   4.590   6.988
18555SOL    HW167724   5.821   4.512   7.034
18555SOL    HW267725   5.763   4.663   7.054
18556SOL     OW67726   6.102   5.427   6.562
18556SOL    HW167727   6.125   5.373   6.480
18556SOL    HW267728   6.013   5.396   6.598
18557SOL     OW67729   6.312   4.845   6.270
18557SOL    HW167730   6.386   4.895   6.314
18557SOL    HW267731   6.268   4.784   6.336
18558SOL     OW67732   6.503   5.193   6.040
18558SOL    HW167733   6.555   5.213   5.957
18558SOL    HW267734   6.440   5.118   6.022
18559SOL     OW67735   5.793   4.514   6.525
18559SOL    HW167736   5.823   4.434   6.473
18559SOL    HW267737   5.837   4.596   6.489
18560SOL     OW67738   5.623   4.570   7.355
18560SOL    HW167739   5.574   4.547   7.270
18560SOL    HW267740   5.651   4.486   7.401
18561SOL     OW67741   6.524   5.466   6.978
18561SOL    HW167742   6.483   5.414   7.052
18561SOL    HW267743   6.467   5.546   6.957
18562SOL     OW67744   6.726   4.860   6.571
18562SOL    HW167745   6.701   4.841   6.666
18562SOL    HW267746   6.769   4.778   6.531
18563SOL     OW67747   6.070   4.099   7.354
18563SOL    HW167748   6.154   4.077   7.305
18563SOL    HW267749   6.072   4.195   7.382
18564SOL     OW67750   7.110   4.630   6.553
18564SOL    HW167751   7.145   4.707   6.500
18564SOL    HW267752   7.085   4.660   6.645
18565SOL     OW67753   6.882   3.980   6.902
18565SOL    HW167754   6.958   3.950   6.960
18565SOL    HW267755   6.818   3.905   6.888
18566SOL     OW67756   5.583   3.784   5.988
18566SOL    HW167757   5.498   3.748   5.949
18566SOL    HW267758   5.569   3.879   6.014
18567SOL     OW67759   6.798   3.838   7.336
18567SOL    HW167760   6.863   3.823   7.411
18567SOL    HW267761   6.734   3.910   7.362
18568SOL     OW67762   6.007   5.309   7.181
18568SOL    HW167763   5.942   5.364   7.233
18568SOL    HW267764   6.048   5.365   7.109
18569SOL     OW67765   7.359   5.145   7.062
18569SOL    HW167766   7.395   5.230   7.102
18569SOL    HW267767   7.282   5.112   7.116
18570SOL     OW67768   6.583   4.209   6.637
18570SOL    HW167769   6.657   4.274   6.650
18570SOL    HW267770   6.582   4.143   6.712
18571SOL     OW67771   5.980   5.162   6.169
18571SOL    HW167772   5.987   5.070   6.207
18571SOL    HW267773   5.884   5.190   6.165
18572SOL     OW67774   6.628   5.243   6.828
18572SOL    HW167775   6.576   5.310   6.880
18572SOL    HW267776   6.585   5.228   6.739
18573SOL     OW67777   5.819   5.467   7.326
18573SOL    HW167778   5.848   5.562   7.332
18573SOL    HW267779   5.812   5.429   7.419
18574SOL     OW67780   5.679   5.032   7.194
18574SOL    HW167781   5.679   4.933   7.185
18574SOL    HW267782   5.605   5.070   7.138
18575SOL     OW67783   5.822   5.369   6.596
18575SOL    HW167784   5.790   5.274   6.602
18575SOL    HW267785   5.833   5.395   6.500
18576SOL     OW67786   6.583   3.810   6.379
18576SOL    HW167787   6.656   3.845   6.437
18576SOL    HW267788   6.519   3.756   6.434
18577SOL     OW67789   6.655   4.827   6.041
18577SOL    HW167790   6.742   4.872   6.061
18577SOL    HW267791   6.627   4.773   6.120
18578SOL     OW67792   7.122   4.153   6.319
18578SOL    HW167793   7.135   4.229   6.382
18578SOL    HW267794   7.166   4.071   6.357
18579SOL     OW67795   6.467   4.788   5.854
18579SOL    HW167796   6.540   4.806   5.920
18579SOL    HW267797   6.503   4.795   5.761
18580SOL     OW67798   6.350   3.808   5.673
18580SOL    HW167799   6.430   3.747   5.671
18580SOL    HW267800   6.378   3.899   5.705
18581SOL     OW67801   6.063   4.218   6.238
18581SOL    HW167802   6.128   4.145   6.263
18581SOL    HW267803   6.113   4.296   6.202
18582SOL     OW67804   6.127   4.777   6.999
18582SOL    HW167805   6.220   4.748   7.020
18582SOL    HW267806   6.130   4.853   6.934
18583SOL     OW67807   7.301   4.783   6.847
18583SOL    HW167808   7.310   4.881   6.830
18583SOL    HW267809   7.362   4.732   6.786
18584SOL     OW67810   5.834   4.943   5.501
18584SOL    HW167811   5.760   4.963   5.437
18584SOL    HW267812   5.847   5.020   5.563
18585SOL     OW67813   6.184   5.436   5.859
18585SOL    HW167814   6.131   5.466   5.780
18585SOL    HW267815   6.158   5.342   5.882
18586SOL     OW67816   6.868   4.823   7.022
18586SOL    HW167817   6.821   4.795   7.106
18586SOL    HW267818   6.840   4.916   6.997
18587SOL     OW67819   6.104   5.446   6.957
18587SOL    HW167820   6.174   5.517   6.950
18587SOL    HW267821   6.023   5.474   6.905
18588SOL     OW67822   5.716   4.225   7.264
18588SOL    HW167823   5.715   4.125   7.266
18588SOL    HW267824   5.710   4.260   7.358
18589SOL     OW67825   7.198   5.222   6.596
18589SOL    HW167826   7.235   5.311   6.624
18589SOL    HW267827   7.217   5.154   6.667
18590SOL     OW67828   6.120   4.510   7.099
18590SOL    HW167829   6.033   4.460   7.108
18590SOL    HW267830   6.103   4.600   7.059
18591SOL     OW67831   7.177   4.855   6.402
18591SOL    HW167832   7.153   4.951   6.418
18591SOL    HW267833   7.156   4.831   6.307
18592SOL     OW67834   6.306   4.221   6.564
18592SOL    HW167835   6.404   4.211   6.580
18592SOL    HW267836   6.262   4.258   6.646
18593SOL     OW67837   6.177   4.987   6.820
18593SOL    HW167838   6.082   5.003   6.792
18593SOL    HW267839   6.230   4.957   6.740
18594SOL     OW67840   5.782   4.410   6.774
18594SOL    HW167841   5.782   4.481   6.844
18594SOL    HW267842   5.793   4.452   6.684
18595SOL     OW67843   5.884   5.115   7.032
18595SOL    HW167844   5.935   5.187   7.080
18595SOL    HW267845   5.811   5.081   7.092
18596SOL     OW67846   7.190   5.386   7.325
18596SOL    HW167847   7.164   5.290   7.313
18596SOL    HW267848   7.158   5.439   7.247
18597SOL     OW67849   6.905   4.939   6.050
18597SOL    HW167850   6.997   4.941   6.088
18597SOL    HW267851   6.910   4.924   5.951
18598SOL     OW67852   6.174   3.997   6.001
18598SOL    HW167853   6.074   3.999   6.003
18598SOL    HW267854   6.209   4.004   6.094
18599SOL     OW67855   7.136   3.733   6.252
18599SOL    HW167856   7.151   3.752   6.155
18599SOL    HW267857   7.183   3.802   6.307
18600SOL     OW67858   6.713   4.450   6.938
18600SOL    HW167859   6.812   4.449   6.918
18600SOL    HW267860   6.666   4.505   6.869
18601SOL     OW67861   6.281   4.435   6.391
18601SOL    HW167862   6.282   4.353   6.448
18601SOL    HW267863   6.280   4.408   6.294
18602SOL     OW67864   6.851   5.115   6.570
18602SOL    HW167865   6.800   5.029   6.567
18602SOL    HW267866   6.852   5.157   6.479
18603SOL     OW67867   6.868   4.106   6.239
18603SOL    HW167868   6.850   4.166   6.160
18603SOL    HW267869   6.962   4.121   6.270
18604SOL     OW67870   6.610   5.136   8.116
18604SOL    HW167871   6.703   5.173   8.121
18604SOL    HW267872   6.569   5.161   8.029
18605SOL     OW67873   7.105   4.941   7.971
18605SOL    HW167874   7.117   5.016   8.036
18605SOL    HW267875   7.194   4.917   7.931
18606SOL     OW67876   7.163   4.199   8.729
18606SOL    HW167877   7.086   4.220   8.789
18606SOL    HW267878   7.203   4.111   8.753
18607SOL     OW67879   5.901   3.899   7.403
18607SOL    HW167880   5.819   3.910   7.346
18607SOL    HW267881   5.966   3.971   7.383
18608SOL     OW67882   6.856   5.245   8.178
18608SOL    HW167883   6.869   5.344   8.185
18608SOL    HW267884   6.945   5.200   8.164
18609SOL     OW67885   6.736   3.751   8.678
18609SOL    HW167886   6.654   3.715   8.722
18609SOL    HW267887   6.781   3.678   8.627
18610SOL     OW67888   6.511   4.549   9.121
18610SOL    HW167889   6.488   4.489   9.043
18610SOL    HW267890   6.427   4.577   9.166
18611SOL     OW67891   6.104   5.177   7.799
18611SOL    HW167892   6.055   5.199   7.883
18611SOL    HW267893   6.176   5.111   7.819
18612SOL     OW67894   6.073   3.694   7.470
18612SOL    HW167895   6.151   3.699   7.407
18612SOL    HW267896   6.013   3.773   7.454
18613SOL     OW67897   7.127   4.757   8.939
18613SOL    HW167898   7.035   4.784   8.913
18613SOL    HW267899   7.191   4.782   8.866
18614SOL     OW67900   6.920   4.754   8.604
18614SOL    HW167901   6.895   4.774   8.698
18614SOL    HW267902   6.990   4.818   8.573
18615SOL     OW67903   6.508   5.023   8.838
18615SOL    HW167904   6.428   5.083   8.828
18615SOL    HW267905   6.503   4.950   8.770
18616SOL     OW67906   6.005   4.903   8.060
18616SOL    HW167907   5.958   4.855   8.134
18616SOL    HW267908   6.101   4.878   8.060
18617SOL     OW67909   6.288   4.297   7.960
18617SOL    HW167910   6.307   4.377   7.903
18617SOL    HW267911   6.252   4.223   7.904
18618SOL     OW67912   6.798   4.232   9.149
18618SOL    HW167913   6.888   4.198   9.173
18618SOL    HW267914   6.735   4.155   9.138
18619SOL     OW67915   5.979   5.086   7.560
18619SOL    HW167916   6.042   5.102   7.483
18619SOL    HW267917   6.018   5.125   7.643
18620SOL     OW67918   6.082   4.002   8.392
18620SOL    HW167919   6.122   4.092   8.373
18620SOL    HW267920   6.151   3.931   8.379
18621SOL     OW67921   5.872   4.445   7.879
18621SOL    HW167922   5.899   4.474   7.971
18621SOL    HW267923   5.772   4.431   7.877
18622SOL     OW67924   6.326   5.408   7.995
18622SOL    HW167925   6.384   5.338   7.953
18622SOL    HW267926   6.310   5.482   7.929
18623SOL     OW67927   7.283   5.302   7.785
18623SOL    HW167928   7.379   5.276   7.776
18623SOL    HW267929   7.258   5.363   7.710
18624SOL     OW67930   7.154   3.964   8.466
18624SOL    HW167931   7.213   4.044   8.473
18624SOL    HW267932   7.058   3.992   8.474
18625SOL     OW67933   5.704   4.694   8.968
18625SOL    HW167934   5.794   4.732   8.989
18625SOL    HW267935   5.661   4.664   9.053
18626SOL     OW67936   6.094   4.369   7.430
18626SOL    HW167937   6.061   4.463   7.425
18626SOL    HW267938   6.175   4.359   7.373
18627SOL     OW67939   6.194   5.303   8.204
18627SOL    HW167940   6.243   5.349   8.130
18627SOL    HW267941   6.115   5.254   8.165
18628SOL     OW67942   6.517   4.309   8.947
18628SOL    HW167943   6.557   4.235   9.000
18628SOL    HW267944   6.588   4.355   8.894
18629SOL     OW67945   7.124   5.139   8.176
18629SOL    HW167946   7.116   5.171   8.270
18629SOL    HW267947   7.185   5.200   8.125
18630SOL     OW67948   5.825   4.998   7.857
18630SOL    HW167949   5.891   4.949   7.914
18630SOL    HW267950   5.777   4.933   7.798
18631SOL     OW67951   5.901   4.231   8.593
18631SOL    HW167952   5.891   4.132   8.593
18631SOL    HW267953   5.814   4.274   8.566
18632SOL     OW67954   6.936   4.483   8.663
18632SOL    HW167955   6.931   4.578   8.634
18632SOL    HW267956   7.019   4.469   8.717
18633SOL     OW67957   5.940   3.977   7.846
18633SOL    HW167958   5.889   4.013   7.925
18633SOL    HW267959   5.890   3.999   7.762
18634SOL     OW67960   7.052   5.411   8.687
18634SOL    HW167961   6.988   5.433   8.614
18634SOL    HW267962   7.144   5.399   8.648
18635SOL     OW67963   7.304   4.191   8.500
18635SOL    HW167964   7.402   4.192   8.522
18635SOL    HW267965   7.251   4.210   8.582
18636SOL     OW67966   7.300   5.409   8.554
18636SOL    HW167967   7.334   5.453   8.637
18636SOL    HW267968   7.376   5.389   8.493
18637SOL     OW67969   6.475   4.109   8.055
18637SOL    HW167970   6.549   4.152   8.108
18637SOL    HW267971   6.418   4.180   8.014
18638SOL     OW67972   6.820   4.649   7.504
18638SOL    HW167973   6.854   4.619   7.594
18638SOL    HW267974   6.764   4.576   7.464
18639SOL     OW67975   6.608   4.034   9.119
18639SOL    HW167976   6.625   4.009   9.215
18639SOL    HW267977   6.519   3.998   9.091
18640SOL     OW67978   7.275   4.366   7.732
18640SOL    HW167979   7.222   4.281   7.742
18640SOL    HW267980   7.335   4.377   7.811
18641SOL     OW67981   6.547   5.475   7.524
18641SOL    HW167982   6.583   5.421   7.448
18641SOL    HW267983   6.561   5.425   7.610
18642SOL     OW67984   6.317   3.751   9.086
18642SOL    HW167985   6.337   3.656   9.059
18642SOL    HW267986   6.324   3.759   9.185
18643SOL     OW67987   7.220   4.281   8.257
18643SOL    HW167988   7.168   4.366   8.263
18643SOL    HW267989   7.244   4.249   8.349
18644SOL     OW67990   6.612   4.962   9.088
18644SOL    HW167991   6.662   4.876   9.084
18644SOL    HW267992   6.568   4.980   9.000
18645SOL     OW67993   6.288   4.837   9.091
18645SOL    HW167994   6.243   4.926   9.098
18645SOL    HW267995   6.293   4.795   9.181
18646SOL     OW67996   6.925   3.645   8.275
18646SOL    HW167997   6.878   3.733   8.281
18646SOL    HW267998   6.997   3.650   8.207
18647SOL     OW67999   7.252   3.872   9.137
18647SOL    HW168000   7.220   3.888   9.231
18647SOL    HW268001   7.211   3.787   9.103
18648SOL     OW68002   5.604   4.406   7.951
18648SOL    HW168003   5.628   4.344   8.026
18648SOL    HW268004   5.563   4.489   7.989
18649SOL     OW68005   5.867   3.894   8.232
18649SOL    HW168006   5.943   3.932   8.286
18649SOL    HW268007   5.873   3.794   8.231
18650SOL     OW68008   5.899   3.950   8.593
18650SOL    HW168009   5.889   3.852   8.611
18650SOL    HW268010   5.965   3.964   8.520
18651SOL     OW68011   6.593   4.461   8.304
18651SOL    HW168012   6.498   4.475   8.275
18651SOL    HW268013   6.629   4.378   8.261
18652SOL     OW68014   5.738   5.248   7.793
18652SOL    HW168015   5.771   5.155   7.808
18652SOL    HW268016   5.788   5.289   7.716
18653SOL     OW68017   6.956   5.055   8.611
18653SOL    HW168018   6.901   5.081   8.532
18653SOL    HW268019   6.900   5.057   8.693
18654SOL     OW68020   5.738   5.303   8.065
18654SOL    HW168021   5.642   5.304   8.094
18654SOL    HW268022   5.742   5.296   7.965
18655SOL     OW68023   7.223   5.085   8.648
18655SOL    HW168024   7.246   5.135   8.731
18655SOL    HW268025   7.124   5.068   8.645
18656SOL     OW68026   6.047   4.644   7.418
18656SOL    HW168027   6.026   4.702   7.340
18656SOL    HW268028   6.025   4.692   7.503
18657SOL     OW68029   6.487   4.813   8.662
18657SOL    HW168030   6.535   4.732   8.630
18657SOL    HW268031   6.426   4.845   8.589
18658SOL     OW68032   5.679   4.344   7.506
18658SOL    HW168033   5.766   4.334   7.554
18658SOL    HW268034   5.604   4.345   7.572
18659SOL     OW68035   7.177   4.627   7.726
18659SOL    HW168036   7.209   4.532   7.726
18659SOL    HW268037   7.201   4.670   7.639
18660SOL     OW68038   6.406   5.536   8.372
18660SOL    HW168039   6.447   5.451   8.340
18660SOL    HW268040   6.336   5.516   8.440
18661SOL     OW68041   6.318   4.621   7.462
18661SOL    HW168042   6.349   4.534   7.500
18661SOL    HW268043   6.220   4.617   7.443
18662SOL     OW68044   6.876   4.112   7.793
18662SOL    HW168045   6.849   4.196   7.745
18662SOL    HW268046   6.976   4.103   7.789
18663SOL     OW68047   5.847   4.343   8.858
18663SOL    HW168048   5.853   4.267   8.794
18663SOL    HW268049   5.813   4.309   8.946
18664SOL     OW68050   5.707   4.023   8.780
18664SOL    HW168051   5.776   3.994   8.713
18664SOL    HW268052   5.617   3.994   8.749
18665SOL     OW68053   6.555   4.557   8.570
18665SOL    HW168054   6.565   4.529   8.474
18665SOL    HW268055   6.475   4.511   8.609
18666SOL     OW68056   7.173   4.097   7.807
18666SOL    HW168057   7.270   4.076   7.797
18666SOL    HW268058   7.149   4.095   7.904
18667SOL     OW68059   6.460   5.284   8.290
18667SOL    HW168060   6.518   5.229   8.230
18667SOL    HW268061   6.364   5.273   8.263
18668SOL     OW68062   6.411   4.132   7.658
18668SOL    HW168063   6.336   4.099   7.716
18668SOL    HW268064   6.497   4.091   7.690
18669SOL     OW68065   6.509   5.011   7.526
18669SOL    HW168066   6.560   4.984   7.608
18669SOL    HW268067   6.570   5.008   7.446
18670SOL     OW68068   7.275   5.327   8.054
18670SOL    HW168069   7.236   5.415   8.082
18670SOL    HW268070   7.272   5.318   7.955
18671SOL     OW68071   6.743   4.642   7.952
18671SOL    HW168072   6.761   4.649   8.050
18671SOL    HW268073   6.648   4.667   7.933
18672SOL     OW68074   6.443   5.309   9.005
18672SOL    HW168075   6.385   5.260   8.940
18672SOL    HW268076   6.414   5.288   9.098
18673SOL     OW68077   6.786   4.655   8.224
18673SOL    HW168078   6.722   4.583   8.251
18673SOL    HW268079   6.776   4.734   8.284
18674SOL     OW68080   5.877   4.774   8.271
18674SOL    HW168081   5.784   4.812   8.275
18674SOL    HW268082   5.911   4.760   8.364
18675SOL     OW68083   6.476   4.713   7.912
18675SOL    HW168084   6.430   4.637   7.866
18675SOL    HW268085   6.418   4.749   7.984
18676SOL     OW68086   6.779   5.077   8.819
18676SOL    HW168087   6.807   5.169   8.846
18676SOL    HW268088   6.679   5.070   8.820
18677SOL     OW68089   5.600   4.046   7.816
18677SOL    HW168090   5.660   4.053   7.737
18677SOL    HW268091   5.654   4.055   7.900
18678SOL     OW68092   7.223   5.484   7.587
18678SOL    HW168093   7.310   5.533   7.579
18678SOL    HW268094   7.199   5.445   7.498
18679SOL     OW68095   6.371   4.445   8.744
18679SOL    HW168096   6.357   4.530   8.793
18679SOL    HW268097   6.418   4.379   8.802
18680SOL     OW68098   5.616   5.561   8.812
18680SOL    HW168099   5.564   5.646   8.806
18680SOL    HW268100   5.599   5.518   8.900
18681SOL     OW68101   6.334   4.509   7.794
18681SOL    HW168102   6.239   4.536   7.777
18681SOL    HW268103   6.374   4.471   7.711
18682SOL     OW68104   5.913   4.308   8.307
18682SOL    HW168105   5.974   4.260   8.244
18682SOL    HW268106   5.936   4.284   8.401
18683SOL     OW68107   5.850   5.453   7.619
18683SOL    HW168108   5.938   5.480   7.579
18683SOL    HW268109   5.844   5.487   7.713
18684SOL     OW68110   6.874   5.429   8.475
18684SOL    HW168111   6.886   5.469   8.384
18684SOL    HW268112   6.905   5.333   8.473
18685SOL     OW68113   5.623   4.873   8.358
18685SOL    HW168114   5.534   4.870   8.312
18685SOL    HW268115   5.620   4.813   8.439
18686SOL     OW68116   5.572   4.848   7.956
18686SOL    HW168117   5.614   4.933   7.990
18686SOL    HW268118   5.590   4.840   7.858
18687SOL     OW68119   7.079   3.975   8.940
18687SOL    HW168120   7.038   4.065   8.957
18687SOL    HW268121   7.143   3.953   9.013
18688SOL     OW68122   6.812   3.898   8.296
18688SOL    HW168123   6.824   3.948   8.210
18688SOL    HW268124   6.846   3.953   8.372
18689SOL     OW68125   6.946   3.780   7.573
18689SOL    HW168126   6.984   3.690   7.554
18689SOL    HW268127   6.852   3.772   7.606
18690SOL     OW68128   7.092   3.684   8.993
18690SOL    HW168129   7.099   3.645   8.901
18690SOL    HW268130   7.024   3.757   8.993
18691SOL     OW68131   6.244   3.973   8.109
18691SOL    HW168132   6.246   3.904   8.182
18691SOL    HW268133   6.332   4.020   8.106
18692SOL     OW68134   6.790   4.314   8.499
18692SOL    HW168135   6.735   4.373   8.441
18692SOL    HW268136   6.845   4.369   8.562
18693SOL     OW68137   7.116   3.725   7.806
18693SOL    HW168138   7.162   3.672   7.735
18693SOL    HW268139   7.040   3.776   7.766
18694SOL     OW68140   6.161   5.091   9.134
18694SOL    HW168141   6.108   5.154   9.077
18694SOL    HW268142   6.236   5.140   9.178
18695SOL     OW68143   5.954   4.798   9.018
18695SOL    HW168144   6.020   4.765   8.951
18695SOL    HW268145   5.933   4.894   9.000
18696SOL     OW68146   5.666   5.089   8.526
18696SOL    HW168147   5.655   5.021   8.454
18696SOL    HW268148   5.582   5.096   8.579
18697SOL     OW68149   6.671   4.217   8.211
18697SOL    HW168150   6.750   4.168   8.172
18697SOL    HW268151   6.642   4.172   8.295
18698SOL     OW68152   6.896   4.061   8.500
18698SOL    HW168153   6.869   4.157   8.492
18698SOL    HW268154   6.884   4.031   8.595
18699SOL     OW68155   7.050   4.144   9.206
18699SOL    HW168156   7.134   4.194   9.183
18699SOL    HW268157   7.072   4.069   9.268
18700SOL     OW68158   6.904   4.566   7.747
18700SOL    HW168159   6.850   4.595   7.826
18700SOL    HW268160   6.999   4.594   7.760
18701SOL     OW68161   7.048   4.706   8.123
18701SOL    HW168162   7.039   4.776   8.052
18701SOL    HW268163   6.957   4.679   8.155
18702SOL     OW68164   7.125   3.998   7.538
18702SOL    HW168165   7.146   4.035   7.628
18702SOL    HW268166   7.058   3.924   7.547
18703SOL     OW68167   6.267   5.187   8.823
18703SOL    HW168168   6.202   5.263   8.814
18703SOL    HW268169   6.232   5.107   8.773
18704SOL     OW68170   5.693   3.981   9.048
18704SOL    HW168171   5.699   3.993   8.949
18704SOL    HW268172   5.598   3.958   9.072
18705SOL     OW68173   5.586   5.421   9.051
18705SOL    HW168174   5.671   5.428   9.104
18705SOL    HW268175   5.508   5.425   9.113
18706SOL     OW68176   5.753   4.051   8.043
18706SOL    HW168177   5.718   4.131   8.092
18706SOL    HW268178   5.794   3.988   8.109
18707SOL     OW68179   6.892   5.312   8.889
18707SOL    HW168180   6.871   5.394   8.942
18707SOL    HW268181   6.952   5.336   8.813
18708SOL     OW68182   5.913   4.294   7.636
18708SOL    HW168183   5.989   4.321   7.577
18708SOL    HW268184   5.918   4.345   7.722
18709SOL     OW68185   7.256   3.930   8.731
18709SOL    HW168186   7.185   3.921   8.801
18709SOL    HW268187   7.217   3.912   8.641
18710SOL     OW68188   5.931   5.500   8.118
18710SOL    HW168189   5.862   5.427   8.119
18710SOL    HW268190   5.950   5.526   8.023
18711SOL     OW68191   5.894   4.982   8.650
18711SOL    HW168192   5.889   5.003   8.747
18711SOL    HW268193   5.817   5.025   8.602
18712SOL     OW68194   6.689   5.221   9.147
18712SOL    HW168195   6.675   5.123   9.130
18712SOL    HW268196   6.625   5.274   9.091
18713SOL     OW68197   6.296   4.989   7.862
18713SOL    HW168198   6.306   4.929   7.782
18713SOL    HW268199   6.297   4.933   7.945
18714SOL     OW68200   5.902   4.529   8.141
18714SOL    HW168201   5.912   4.619   8.184
18714SOL    HW268202   5.924   4.458   8.208
18715SOL     OW68203   5.800   4.042   7.620
18715SOL    HW168204   5.837   3.990   7.544
18715SOL    HW268205   5.838   4.135   7.619
18716SOL     OW68206   5.663   4.266   8.188
18716SOL    HW168207   5.596   4.324   8.234
18716SOL    HW268208   5.753   4.278   8.231
18717SOL     OW68209   6.038   4.819   7.633
18717SOL    HW168210   6.136   4.839   7.635
18717SOL    HW268211   5.987   4.904   7.618
18718SOL     OW68212   6.671   4.427   7.412
18718SOL    HW168213   6.616   4.484   7.350
18718SOL    HW268214   6.721   4.359   7.359
18719SOL     OW68215   6.435   4.392   7.567
18719SOL    HW168216   6.522   4.399   7.519
18719SOL    HW268217   6.418   4.297   7.593
18720SOL     OW68218   6.945   4.220   8.897
18720SOL    HW168219   6.898   4.268   8.971
18720SOL    HW268220   6.878   4.168   8.843
18721SOL     OW68221   5.634   3.748   7.563
18721SOL    HW168222   5.711   3.686   7.579
18721SOL    HW268223   5.662   3.842   7.583
18722SOL     OW68224   5.945   4.734   8.532
18722SOL    HW168225   5.918   4.664   8.598
18722SOL    HW268226   5.929   4.824   8.571
18723SOL     OW68227   6.169   4.331   8.579
18723SOL    HW168228   6.217   4.379   8.652
18723SOL    HW268229   6.076   4.309   8.609
18724SOL     OW68230   6.372   4.686   8.879
18724SOL    HW168231   6.426   4.739   8.813
18724SOL    HW268232   6.356   4.740   8.961
18725SOL     OW68233   6.720   4.709   9.052
18725SOL    HW168234   6.637   4.656   9.072
18725SOL    HW268235   6.800   4.652   9.071
18726SOL     OW68236   6.523   3.826   8.088
18726SOL    HW168237   6.512   3.923   8.066
18726SOL    HW268238   6.536   3.816   8.187
18727SOL     OW68239   6.281   3.825   8.343
18727SOL    HW168240   6.247   3.738   8.379
18727SOL    HW268241   6.380   3.829   8.355
18728SOL     OW68242   5.851   5.512   8.674
18728SOL    HW168243   5.824   5.456   8.596
18728SOL    HW268244   5.771   5.529   8.731
18729SOL     OW68245   6.514   4.925   8.257
18729SOL    HW168246   6.547   5.003   8.204
18729SOL    HW268247   6.590   4.886   8.310
18730SOL     OW68248   6.207   4.665   8.313
18730SOL    HW168249   6.246   4.578   8.282
18730SOL    HW268250   6.130   4.647   8.374
18731SOL     OW68251   5.587   4.718   8.585
18731SOL    HW168252   5.654   4.655   8.624
18731SOL    HW268253   5.512   4.666   8.544
18732SOL     OW68254   5.824   3.717   7.823
18732SOL    HW168255   5.879   3.796   7.848
18732SOL    HW268256   5.731   3.728   7.859
18733SOL     OW68257   6.253   4.325   9.037
18733SOL    HW168258   6.200   4.376   8.969
18733SOL    HW268259   6.346   4.312   9.004
18734SOL     OW68260   5.660   4.848   7.692
18734SOL    HW168261   5.611   4.766   7.665
18734SOL    HW268262   5.679   4.904   7.611
18735SOL     OW68263   7.242   3.866   8.222
18735SOL    HW168264   7.211   3.888   8.315
18735SOL    HW268265   7.335   3.829   8.226
18736SOL     OW68266   6.319   4.880   8.452
18736SOL    HW168267   6.273   4.803   8.408
18736SOL    HW268268   6.386   4.920   8.389
18737SOL     OW68269   6.802   4.330   7.651
18737SOL    HW168270   6.840   4.412   7.693
18737SOL    HW268271   6.751   4.355   7.569
18738SOL     OW68272   7.041   5.144   9.059
18738SOL    HW168273   7.006   5.063   9.105
18738SOL    HW268274   6.969   5.183   9.000
18739SOL     OW68275   5.778   4.570   8.728
18739SOL    HW168276   5.807   4.484   8.770
18739SOL    HW268277   5.755   4.636   8.800
18740SOL     OW68278   6.357   5.206   7.412
18740SOL    HW168279   6.309   5.259   7.482
18740SOL    HW268280   6.416   5.138   7.456
18741SOL     OW68281   6.183   5.392   8.468
18741SOL    HW168282   6.179   5.358   8.375
18741SOL    HW268283   6.183   5.315   8.532
18742SOL     OW68284   6.303   4.829   8.105
18742SOL    HW168285   6.379   4.874   8.152
18742SOL    HW268286   6.258   4.765   8.167
18743SOL     OW68287   6.477   5.201   7.886
18743SOL    HW168288   6.542   5.212   7.810
18743SOL    HW268289   6.417   5.123   7.867
18744SOL     OW68290   5.656   4.539   8.286
18744SOL    HW168291   5.743   4.537   8.236
18744SOL    HW268292   5.584   4.575   8.227
18745SOL     OW68293   5.568   4.606   9.187
18745SOL    HW168294   5.469   4.602   9.182
18745SOL    HW268295   5.599   4.564   9.272
18746SOL     OW68296   6.498   5.472   8.780
18746SOL    HW168297   6.491   5.418   8.864
18746SOL    HW268298   6.421   5.535   8.775
18747SOL     OW68299   6.744   4.856   8.406
18747SOL    HW168300   6.753   4.955   8.414
18747SOL    HW268301   6.792   4.812   8.482
18748SOL     OW68302   6.085   4.086   9.159
18748SOL    HW168303   6.158   4.080   9.091
18748SOL    HW268304   6.078   4.180   9.193
18749SOL     OW68305   6.076   4.576   7.753
18749SOL    HW168306   6.050   4.666   7.718
18749SOL    HW268307   5.998   4.534   7.799
18750SOL     OW68308   6.859   3.979   8.758
18750SOL    HW168309   6.929   3.957   8.826
18750SOL    HW268310   6.808   3.897   8.734
18751SOL     OW68311   5.563   3.783   7.891
18751SOL    HW168312   5.468   3.754   7.883
18751SOL    HW268313   5.571   3.879   7.865
18752SOL     OW68314   6.829   3.834   9.110
18752SOL    HW168315   6.856   3.825   9.206
18752SOL    HW268316   6.762   3.907   9.100
18753SOL     OW68317   5.980   5.281   9.025
18753SOL    HW168318   5.927   5.341   9.085
18753SOL    HW268319   6.015   5.333   8.948
18754SOL     OW68320   7.258   5.204   8.891
18754SOL    HW168321   7.311   5.275   8.936
18754SOL    HW268322   7.187   5.171   8.953
18755SOL     OW68323   6.566   4.119   8.448
18755SOL    HW168324   6.633   4.161   8.508
18755SOL    HW268325   6.567   4.020   8.461
18756SOL     OW68326   5.989   5.179   8.065
18756SOL    HW168327   5.988   5.079   8.063
18756SOL    HW268328   5.895   5.213   8.070
18757SOL     OW68329   6.643   5.314   8.595
18757SOL    HW168330   6.582   5.363   8.657
18757SOL    HW268331   6.708   5.378   8.554
18758SOL     OW68332   5.825   5.451   9.203
18758SOL    HW168333   5.849   5.548   9.199
18758SOL    HW268334   5.798   5.427   9.296
18759SOL     OW68335   5.623   4.989   9.004
18759SOL    HW168336   5.596   4.905   8.957
18759SOL    HW268337   5.563   5.064   8.976
18760SOL     OW68338   5.740   5.351   8.470
18760SOL    HW168339   5.721   5.255   8.490
18760SOL    HW268340   5.777   5.360   8.378
18761SOL     OW68341   6.558   3.820   8.373
18761SOL    HW168342   6.654   3.836   8.353
18761SOL    HW268343   6.549   3.737   8.428
18762SOL     OW68344   6.605   4.915   7.762
18762SOL    HW168345   6.692   4.938   7.808
18762SOL    HW268346   6.559   4.843   7.813
18763SOL     OW68347   7.139   4.082   8.084
18763SOL    HW168348   7.167   4.160   8.139
18763SOL    HW268349   7.178   3.998   8.123
18764SOL     OW68350   6.310   4.850   7.620
18764SOL    HW168351   6.379   4.914   7.586
18764SOL    HW268352   6.325   4.760   7.581
18765SOL     OW68353   6.083   4.195   8.134
18765SOL    HW168354   6.121   4.103   8.131
18765SOL    HW268355   6.135   4.255   8.073
18766SOL     OW68356   6.117   4.737   8.808
18766SOL    HW168357   6.209   4.712   8.837
18766SOL    HW268358   6.122   4.821   8.754
18767SOL     OW68359   7.283   4.832   8.727
18767SOL    HW168360   7.265   4.926   8.699
18767SOL    HW268361   7.364   4.798   8.680
18768SOL     OW68362   5.733   4.998   7.473
18768SOL    HW168363   5.715   5.021   7.377
18768SOL    HW268364   5.820   5.037   7.501
18769SOL     OW68365   6.204   5.331   7.593
18769SOL    HW168366   6.151   5.413   7.573
18769SOL    HW268367   6.171   5.289   7.677
18770SOL     OW68368   6.871   4.827   8.860
18770SOL    HW168369   6.813   4.780   8.928
18770SOL    HW268370   6.841   4.921   8.851
18771SOL     OW68371   6.082   5.411   8.801
18771SOL    HW168372   6.151   5.482   8.791
18771SOL    HW268373   6.000   5.436   8.749
18772SOL     OW68374   5.747   4.245   9.095
18772SOL    HW168375   5.735   4.146   9.086
18772SOL    HW268376   5.777   4.267   9.188
18773SOL     OW68377   7.116   5.243   8.425
18773SOL    HW168378   7.179   5.317   8.449
18773SOL    HW268379   7.125   5.169   8.492
18774SOL     OW68380   5.491   4.622   8.080
18774SOL    HW168381   5.520   4.706   8.034
18774SOL    HW268382   5.393   4.626   8.098
18775SOL     OW68383   6.091   4.466   8.872
18775SOL    HW168384   5.999   4.426   8.871
18775SOL    HW268385   6.086   4.561   8.841
18776SOL     OW68386   7.202   4.885   8.271
18776SOL    HW168387   7.173   4.976   8.241
18776SOL    HW268388   7.144   4.815   8.229
18777SOL     OW68389   6.305   4.210   8.382
18777SOL    HW168390   6.395   4.176   8.410
18777SOL    HW268391   6.260   4.253   8.460
18778SOL     OW68392   6.169   4.980   8.664
18778SOL    HW168393   6.072   4.990   8.641
18778SOL    HW268394   6.220   4.952   8.583
18779SOL     OW68395   5.688   4.401   8.524
18779SOL    HW168396   5.721   4.464   8.595
18779SOL    HW268397   5.679   4.450   8.437
18780SOL     OW68398   5.876   5.046   8.921
18780SOL    HW168399   5.912   5.132   8.957
18780SOL    HW268400   5.782   5.034   8.952
18781SOL     OW68401   7.116   5.396   9.149
18781SOL    HW168402   7.084   5.304   9.129
18781SOL    HW268403   7.092   5.457   9.073
18782SOL     OW68404   6.862   4.959   7.848
18782SOL    HW168405   6.946   4.953   7.902
18782SOL    HW268406   6.877   4.922   7.757
18783SOL     OW68407   6.211   4.052   7.846
18783SOL    HW168408   6.116   4.032   7.821
18783SOL    HW268409   6.232   4.008   7.933
18784SOL     OW68410   7.115   3.669   8.079
18784SOL    HW168411   7.106   3.688   7.981
18784SOL    HW268412   7.165   3.744   8.122
18785SOL     OW68413   6.689   4.440   8.787
18785SOL    HW168414   6.788   4.448   8.772
18785SOL    HW268415   6.640   4.490   8.716
18786SOL     OW68416   6.323   4.429   8.218
18786SOL    HW168417   6.310   4.349   8.277
18786SOL    HW268418   6.312   4.401   8.122
18787SOL     OW68419   6.770   5.131   8.424
18787SOL    HW168420   6.704   5.184   8.477
18787SOL    HW268421   6.782   5.173   8.334
18788SOL     OW68422   6.865   4.067   8.078
18788SOL    HW168423   6.841   4.081   7.982
18788SOL    HW268424   6.964   4.073   8.089
18789SOL     OW68425   6.644   5.219   9.993
18789SOL    HW168426   6.676   5.135   0.037
18789SOL    HW268427   6.617   5.199   9.899
18790SOL     OW68428   7.214   4.903   9.881
18790SOL    HW168429   7.251   4.975   9.939
18790SOL    HW268430   7.284   4.871   9.818
18791SOL     OW68431   5.908   3.888   9.182
18791SOL    HW168432   5.825   3.917   9.134
18791SOL    HW268433   5.978   3.958   9.173
18792SOL     OW68434   6.080   3.739   9.336
18792SOL    HW168435   6.170   3.781   9.346
18792SOL    HW268436   6.023   3.795   9.276
18793SOL     OW68437   5.924   4.880   9.945
18793SOL    HW168438   5.838   4.887   9.995
18793SOL    HW268439   5.997   4.853   0.007
18794SOL     OW68440   6.300   4.289   9.741
18794SOL    HW168441   6.316   4.385   9.717
18794SOL    HW268442   6.297   4.234   9.657
18795SOL     OW68443   5.952   5.045   9.303
18795SOL    HW168444   6.027   5.045   9.237
18795SOL    HW268445   5.948   5.134   9.349
18796SOL     OW68446   5.806   4.488   9.657
18796SOL    HW168447   5.816   4.395   9.691
18796SOL    HW268448   5.741   4.538   9.714
18797SOL     OW68449   7.257   5.275   9.624
18797SOL    HW168450   7.351   5.253   9.597
18797SOL    HW268451   7.215   5.331   9.553
18798SOL     OW68452   6.611   4.100   9.592
18798SOL    HW168453   6.663   4.184   9.582
18798SOL    HW268454   6.637   4.054   9.677
18799SOL     OW68455   6.064   4.369   9.227
18799SOL    HW168456   6.039   4.466   9.229
18799SOL    HW268457   6.139   4.355   9.162
18800SOL     OW68458   7.341   5.089   0.053
18800SOL    HW168459   7.315   5.110   0.147
18800SOL    HW268460   7.320   5.168   9.995
18801SOL     OW68461   5.843   4.944   9.680
18801SOL    HW168462   5.879   4.930   9.772
18801SOL    HW268463   5.906   4.904   9.613
18802SOL     OW68464   6.685   3.962   9.365
18802SOL    HW168465   6.749   3.888   9.384
18802SOL    HW268466   6.662   4.010   9.450
18803SOL     OW68467   5.942   4.042   9.642
18803SOL    HW168468   5.942   4.090   9.730
18803SOL    HW268469   5.888   3.958   9.650
18804SOL     OW68470   7.382   5.403   0.290
18804SOL    HW168471   7.388   5.485   0.347
18804SOL    HW268472   7.473   5.377   0.258
18805SOL     OW68473   6.448   4.160   9.936
18805SOL    HW168474   6.538   4.196   9.959
18805SOL    HW268475   6.404   4.218   9.868
18806SOL     OW68476   6.791   4.663   9.438
18806SOL    HW168477   6.803   4.622   9.529
18806SOL    HW268478   6.741   4.600   9.379
18807SOL     OW68479   7.285   4.325   9.557
18807SOL    HW168480   7.236   4.238   9.560
18807SOL    HW268481   7.352   4.328   9.631
18808SOL     OW68482   5.628   4.295   9.780
18808SOL    HW168483   5.618   4.280   9.879
18808SOL    HW268484   5.598   4.388   9.758
18809SOL     OW68485   5.682   5.140   9.507
18809SOL    HW168486   5.729   5.086   9.577
18809SOL    HW268487   5.670   5.084   9.425
18810SOL     OW68488   5.657   5.454   9.844
18810SOL    HW168489   5.615   5.517   9.779
18810SOL    HW268490   5.594   5.379   9.863
18811SOL     OW68491   6.023   4.646   9.243
18811SOL    HW168492   5.997   4.697   9.161
18811SOL    HW268493   6.006   4.702   9.324
18812SOL     OW68494   5.628   4.525   9.446
18812SOL    HW168495   5.699   4.523   9.517
18812SOL    HW268496   5.556   4.460   9.470
18813SOL     OW68497   7.133   4.545   9.620
18813SOL    HW168498   7.184   4.463   9.595
18813SOL    HW268499   7.156   4.619   9.557
18814SOL     OW68500   6.292   4.591   9.277
18814SOL    HW168501   6.310   4.499   9.312
18814SOL    HW268502   6.194   4.602   9.262
18815SOL     OW68503   6.915   4.104   9.605
18815SOL    HW168504   6.872   4.185   9.565
18815SOL    HW268505   7.015   4.110   9.592
18816SOL     OW68506   7.186   4.073   9.626
18816SOL    HW168507   7.284   4.055   9.622
18816SOL    HW268508   7.159   4.086   9.722
18817SOL     OW68509   6.381   4.083   9.451
18817SOL    HW168510   6.309   4.050   9.513
18817SOL    HW268511   6.468   4.087   9.501
18818SOL     OW68512   6.489   4.996   9.330
18818SOL    HW168513   6.561   5.029   9.391
18818SOL    HW268514   6.529   4.972   9.242
18819SOL     OW68515   7.275   5.301   9.896
18819SOL    HW168516   7.231   5.387   9.922
18819SOL    HW268517   7.256   5.283   9.799
18820SOL     OW68518   6.696   4.553   9.971
18820SOL    HW168519   6.784   4.600   9.967
18820SOL    HW268520   6.638   4.586   9.896
18821SOL     OW68521   6.936   4.672   9.948
18821SOL    HW168522   6.993   4.702   0.024
18821SOL    HW268523   6.945   4.737   9.872
18822SOL     OW68524   6.516   4.636   9.781
18822SOL    HW168525   6.469   4.615   9.695
18822SOL    HW268526   6.458   4.609   9.858
18823SOL     OW68527   5.600   4.064   9.627
18823SOL    HW168528   5.661   4.053   9.549
18823SOL    HW268529   5.629   4.144   9.680
18824SOL     OW68530   7.152   5.446   9.428
18824SOL    HW168531   7.231   5.504   9.411
18824SOL    HW268532   7.111   5.418   9.341
18825SOL     OW68533   6.329   4.528   9.599
18825SOL    HW168534   6.233   4.556   9.597
18825SOL    HW268535   6.350   4.474   9.517
18826SOL     OW68536   5.725   5.412   9.466
18826SOL    HW168537   5.729   5.454   9.557
18826SOL    HW268538   5.709   5.314   9.476
18827SOL     OW68539   6.256   3.722   9.627
18827SOL    HW168540   6.288   3.699   9.535
18827SOL    HW268541   6.236   3.820   9.631
18828SOL     OW68542   5.582   4.843   9.700
18828SOL    HW168543   5.671   4.886   9.714
18828SOL    HW268544   5.565   4.832   9.602
18829SOL     OW68545   6.892   3.770   9.399
18829SOL    HW168546   6.894   3.671   9.385
18829SOL    HW268547   6.878   3.789   9.496
18830SOL     OW68548   6.240   3.985   9.911
18830SOL    HW168549   6.241   3.905   9.971
18830SOL    HW268550   6.319   4.043   9.933
18831SOL     OW68551   7.117   3.734   9.687
18831SOL    HW168552   7.145   3.694   9.600
18831SOL    HW268553   7.024   3.772   9.678
18832SOL     OW68554   6.866   4.531   9.674
18832SOL    HW168555   6.850   4.540   9.772
18832SOL    HW268556   6.964   4.539   9.655
18833SOL     OW68557   7.217   4.540   9.882
18833SOL    HW168558   7.182   4.545   9.789
18833SOL    HW268559   7.145   4.565   9.947
18834SOL     OW68560   7.117   3.940   9.376
18834SOL    HW168561   7.148   3.969   9.466
18834SOL    HW268562   7.043   3.873   9.386
18835SOL     OW68563   5.836   4.289   9.354
18835SOL    HW168564   5.927   4.311   9.317
18835SOL    HW268565   5.810   4.359   9.421
18836SOL     OW68566   5.749   4.031   9.392
18836SOL    HW168567   5.826   3.975   9.361
18836SOL    HW268568   5.773   4.128   9.383
18837SOL     OW68569   5.567   4.311   0.051
18837SOL    HW168570   5.533   4.400   0.080
18837SOL    HW268571   5.641   4.282   0.111
18838SOL     OW68572   6.019   4.838   9.468
18838SOL    HW168573   6.119   4.840   9.465
18838SOL    HW268574   5.982   4.910   9.410
18839SOL     OW68575   6.670   4.423   9.297
18839SOL    HW168576   6.615   4.479   9.235
18839SOL    HW268577   6.725   4.359   9.243
18840SOL     OW68578   6.400   4.358   9.389
18840SOL    HW168579   6.495   4.371   9.363
18840SOL    HW268580   6.380   4.260   9.394
18841SOL     OW68581   6.861   3.846   9.658
18841SOL    HW168582   6.787   3.843   9.725
18841SOL    HW268583   6.884   3.942   9.638
18842SOL     OW68584   5.607   3.797   9.352
18842SOL    HW168585   5.679   3.732   9.373
18842SOL    HW268586   5.640   3.890   9.369
18843SOL     OW68587   7.221   4.710   9.424
18843SOL    HW168588   7.320   4.716   9.439
18843SOL    HW268589   7.204   4.691   9.327
18844SOL     OW68590   6.657   3.965   9.827
18844SOL    HW168591   6.708   3.958   9.913
18844SOL    HW268592   6.561   3.986   9.846
18845SOL     OW68593   5.816   3.794   9.665
18845SOL    HW168594   5.873   3.752   9.736
18845SOL    HW268595   5.720   3.793   9.693
18846SOL     OW68596   5.570   4.802   9.434
18846SOL    HW168597   5.605   4.709   9.422
18846SOL    HW268598   5.614   4.863   9.368
18847SOL     OW68599   7.270   3.918   0.061
18847SOL    HW168600   7.232   3.974   0.135
18847SOL    HW268601   7.356   3.876   0.090
18848SOL     OW68602   6.765   4.321   9.533
18848SOL    HW168603   6.797   4.395   9.592
18848SOL    HW268604   6.729   4.359   9.448
18849SOL     OW68605   6.364   5.228   9.260
18849SOL    HW168606   6.378   5.297   9.331
18849SOL    HW268607   6.409   5.143   9.286
18850SOL     OW68608   6.589   5.131   9.738
18850SOL    HW168609   6.608   5.153   9.642
18850SOL    HW268610   6.610   5.035   9.756
18851SOL     OW68611   6.059   4.595   9.601
18851SOL    HW168612   6.041   4.685   9.559
18851SOL    HW268613   5.972   4.550   9.621
18852SOL     OW68614   5.554   3.809   9.724
18852SOL    HW168615   5.459   3.780   9.728
18852SOL    HW268616   5.559   3.905   9.696
18853SOL     OW68617   6.671   4.874   9.760
18853SOL    HW168618   6.769   4.853   9.760
18853SOL    HW268619   6.619   4.788   9.765
18854SOL     OW68620   7.169   4.119   9.898
18854SOL    HW168621   7.227   4.194   9.932
18854SOL    HW268622   7.194   4.034   9.944
18855SOL     OW68623   6.285   4.836   9.422
18855SOL    HW168624   6.359   4.900   9.401
18855SOL    HW268625   6.316   4.742   9.406
18856SOL     OW68626   6.344   3.819   9.353
18856SOL    HW168627   6.425   3.761   9.359
18856SOL    HW268628   6.368   3.913   9.376
18857SOL     OW68629   6.063   4.189   9.862
18857SOL    HW168630   6.107   4.106   9.896
18857SOL    HW268631   6.131   4.247   9.817
18858SOL     OW68632   5.690   4.984   9.272
18858SOL    HW168633   5.658   4.985   9.177
18858SOL    HW268634   5.789   4.999   9.274
18859SOL     OW68635   5.573   4.581   9.787
18859SOL    HW168636   5.579   4.677   9.758
18859SOL    HW268637   5.494   4.569   9.847
18860SOL     OW68638   6.968   4.848   9.743
18860SOL    HW168639   7.053   4.883   9.782
18860SOL    HW268640   6.971   4.856   9.644
18861SOL     OW68641   6.208   3.996   9.640
18861SOL    HW168642   6.111   4.014   9.623
18861SOL    HW268643   6.224   3.993   9.738
18862SOL     OW68644   7.159   3.689   9.958
18862SOL    HW168645   7.134   3.699   9.862
18862SOL    HW268646   7.203   3.774   9.990
18863SOL     OW68647   6.900   4.191   9.873
18863SOL    HW168648   6.886   4.153   9.781
18863SOL    HW268649   6.994   4.171   9.903
18864SOL     OW68650   7.154   6.208   1.390
18864SOL    HW168651   7.088   6.159   1.447
18864SOL    HW268652   7.214   6.262   1.448
18865SOL     OW68653   5.878   5.844   0.084
18865SOL    HW168654   5.817   5.769   0.058
18865SOL    HW268655   5.923   5.881   0.002
18866SOL     OW68656   6.731   5.626   1.323
18866SOL    HW168657   6.651   5.578   1.358
18866SOL    HW268658   6.785   5.564   1.266
18867SOL     OW68659   6.500   6.399   1.744
18867SOL    HW168660   6.476   6.342   1.665
18867SOL    HW268661   6.416   6.430   1.789
18868SOL     OW68662   6.137   7.022   0.438
18868SOL    HW168663   6.078   7.047   0.515
18868SOL    HW268664   6.196   6.945   0.465
18869SOL     OW68665   6.253   5.803   0.146
18869SOL    HW168666   6.325   5.735   0.137
18869SOL    HW268667   6.192   5.778   0.220
18870SOL     OW68668   7.124   6.585   1.555
18870SOL    HW168669   7.026   6.600   1.539
18870SOL    HW268670   7.175   6.616   1.475
18871SOL     OW68671   6.945   6.596   1.235
18871SOL    HW168672   6.906   6.594   1.327
18871SOL    HW268673   6.981   6.688   1.217
18872SOL     OW68674   6.524   6.875   1.470
18872SOL    HW168675   6.445   6.933   1.456
18872SOL    HW268676   6.518   6.795   1.410
18873SOL     OW68677   6.002   6.748   0.709
18873SOL    HW168678   5.952   6.704   0.784
18873SOL    HW268679   6.098   6.722   0.713
18874SOL     OW68680   6.263   6.174   0.568
18874SOL    HW168681   6.297   6.246   0.507
18874SOL    HW268682   6.220   6.102   0.513
18875SOL     OW68683   6.837   6.074   1.781
18875SOL    HW168684   6.937   6.071   1.785
18875SOL    HW268685   6.799   5.998   1.832
18876SOL     OW68686   6.030   6.920   0.205
18876SOL    HW168687   6.112   6.917   0.148
18876SOL    HW268688   6.049   6.969   0.289
18877SOL     OW68689   6.103   5.839   1.026
18877SOL    HW168690   6.137   5.932   1.011
18877SOL    HW268691   6.172   5.773   0.999
18878SOL     OW68692   7.152   7.108   0.242
18878SOL    HW168693   7.232   7.096   0.300
18878SOL    HW268694   7.148   7.203   0.209
18879SOL     OW68695   7.210   5.879   1.109
18879SOL    HW168696   7.242   5.974   1.117
18879SOL    HW268697   7.110   5.878   1.105
18880SOL     OW68698   6.592   5.955   0.341
18880SOL    HW168699   6.669   6.017   0.325
18880SOL    HW268700   6.598   5.917   0.433
18881SOL     OW68701   5.707   6.542   1.605
18881SOL    HW168702   5.799   6.570   1.630
18881SOL    HW268703   5.660   6.506   1.686
18882SOL     OW68704   6.136   6.225   0.150
18882SOL    HW168705   6.092   6.174   0.076
18882SOL    HW268706   6.200   6.166   0.198
18883SOL     OW68707   6.173   7.164   0.826
18883SOL    HW168708   6.192   7.242   0.767
18883SOL    HW268709   6.105   7.105   0.783
18884SOL     OW68710   6.489   6.165   1.571
18884SOL    HW168711   6.514   6.089   1.631
18884SOL    HW268712   6.568   6.190   1.515
18885SOL     OW68713   5.838   6.726   0.485
18885SOL    HW168714   5.885   6.734   0.573
18885SOL    HW268715   5.904   6.696   0.415
18886SOL     OW68716   6.683   5.801   0.124
18886SOL    HW168717   6.760   5.745   0.155
18886SOL    HW268718   6.654   5.862   0.199
18887SOL     OW68719   5.902   6.068   1.250
18887SOL    HW168720   5.894   5.969   1.240
18887SOL    HW268721   5.817   6.111   1.220
18888SOL     OW68722   6.925   6.320   1.287
18888SOL    HW168723   6.936   6.417   1.265
18888SOL    HW268724   7.012   6.283   1.320
18889SOL     OW68725   5.883   5.833   0.471
18889SOL    HW168726   5.842   5.859   0.559
18889SOL    HW268727   5.838   5.884   0.398
18890SOL     OW68728   7.000   7.239   1.305
18890SOL    HW168729   7.049   7.193   1.231
18890SOL    HW268730   7.027   7.336   1.308
18891SOL     OW68731   7.275   6.142   1.153
18891SOL    HW168732   7.369   6.175   1.157
18891SOL    HW268733   7.227   6.166   1.237
18892SOL     OW68734   7.351   7.303   1.170
18892SOL    HW168735   7.367   7.322   1.267
18892SOL    HW268736   7.437   7.274   1.128
18893SOL     OW68737   6.461   6.000   0.664
18893SOL    HW168738   6.528   6.043   0.724
18893SOL    HW268739   6.399   6.069   0.628
18894SOL     OW68740   6.668   6.479   0.263
18894SOL    HW168741   6.729   6.427   0.322
18894SOL    HW268742   6.600   6.416   0.223
18895SOL     OW68743   6.520   5.961   1.754
18895SOL    HW168744   6.594   5.929   1.813
18895SOL    HW268745   6.433   5.923   1.786
18896SOL     OW68746   7.182   6.146   0.278
18896SOL    HW168747   7.259   6.147   0.215
18896SOL    HW268748   7.190   6.067   0.339
18897SOL     OW68749   6.523   7.287   0.125
18897SOL    HW168750   6.517   7.270   0.027
18897SOL    HW268751   6.457   7.229   0.173
18898SOL     OW68752   6.288   5.592   1.708
18898SOL    HW168753   6.315   5.500   1.679
18898SOL    HW268754   6.309   5.603   1.805
18899SOL     OW68755   7.265   6.186   0.876
18899SOL    HW168756   7.203   6.248   0.829
18899SOL    HW268757   7.248   6.188   0.974
18900SOL     OW68758   6.638   6.840   1.732
18900SOL    HW168759   6.675   6.747   1.728
18900SOL    HW268760   6.588   6.859   1.648
18901SOL     OW68761   6.285   6.667   1.727
18901SOL    HW168762   6.229   6.749   1.740
18901SOL    HW268763   6.284   6.612   1.810
18902SOL     OW68764   6.938   5.512   0.904
18902SOL    HW168765   6.891   5.600   0.902
18902SOL    HW268766   7.024   5.519   0.854
18903SOL     OW68767   7.287   5.777   1.763
18903SOL    HW168768   7.249   5.810   1.850
18903SOL    HW268769   7.259   5.683   1.748
18904SOL     OW68770   5.572   6.211   0.599
18904SOL    HW168771   5.590   6.152   0.679
18904SOL    HW268772   5.561   6.305   0.629
18905SOL     OW68773   5.886   5.732   0.865
18905SOL    HW168774   5.961   5.770   0.920
18905SOL    HW268775   5.893   5.633   0.863
18906SOL     OW68776   5.912   5.789   1.228
18906SOL    HW168777   5.894   5.691   1.236
18906SOL    HW268778   5.980   5.805   1.157
18907SOL     OW68779   6.556   6.349   0.921
18907SOL    HW168780   6.509   6.394   0.844
18907SOL    HW268781   6.591   6.260   0.892
18908SOL     OW68782   5.762   6.989   0.434
18908SOL    HW168783   5.787   6.893   0.447
18908SOL    HW268784   5.743   7.005   0.337
18909SOL     OW68785   6.993   6.869   1.238
18909SOL    HW168786   6.955   6.915   1.158
18909SOL    HW268787   6.928   6.876   1.314
18910SOL     OW68788   5.724   7.122   0.668
18910SOL    HW168789   5.626   7.137   0.679
18910SOL    HW268790   5.742   7.079   0.579
18911SOL     OW68791   7.261   6.914   1.261
18911SOL    HW168792   7.288   6.936   1.355
18911SOL    HW268793   7.163   6.893   1.259
18912SOL     OW68794   6.497   6.656   1.298
18912SOL    HW168795   6.536   6.569   1.269
18912SOL    HW268796   6.435   6.691   1.228
18913SOL     OW68797   7.102   6.345   0.442
18913SOL    HW168798   7.130   6.271   0.382
18913SOL    HW268799   7.154   6.428   0.418
18914SOL     OW68800   6.388   7.274   1.167
18914SOL    HW168801   6.419   7.206   1.100
18914SOL    HW268802   6.290   7.290   1.156
18915SOL     OW68803   6.278   6.454   0.095
18915SOL    HW168804   6.368   6.409   0.096
18915SOL    HW268805   6.207   6.386   0.111
18916SOL     OW68806   6.918   5.955   0.475
18916SOL    HW168807   6.879   6.010   0.401
18916SOL    HW268808   7.018   5.964   0.475
18917SOL     OW68809   5.835   6.188   1.502
18917SOL    HW168810   5.848   6.113   1.437
18917SOL    HW268811   5.786   6.155   1.582
18918SOL     OW68812   5.719   5.856   1.427
18918SOL    HW168813   5.789   5.830   1.361
18918SOL    HW268814   5.628   5.834   1.389
18919SOL     OW68815   6.537   6.399   1.194
18919SOL    HW168816   6.543   6.381   1.096
18919SOL    HW268817   6.456   6.355   1.232
18920SOL     OW68818   7.195   5.946   0.475
18920SOL    HW168819   7.289   5.924   0.451
18920SOL    HW268820   7.187   5.956   0.574
18921SOL     OW68821   6.406   7.089   0.961
18921SOL    HW168822   6.432   6.994   0.946
18921SOL    HW268823   6.323   7.109   0.910
18922SOL     OW68824   6.354   6.051   0.235
18922SOL    HW168825   6.307   5.972   0.196
18922SOL    HW268826   6.437   6.020   0.281
18923SOL     OW68827   6.524   6.787   0.162
18923SOL    HW168828   6.599   6.778   0.227
18923SOL    HW268829   6.561   6.805   0.071
18924SOL     OW68830   6.733   6.407   0.659
18924SOL    HW168831   6.777   6.396   0.749
18924SOL    HW268832   6.637   6.432   0.672
18925SOL     OW68833   6.384   7.160   1.631
18925SOL    HW168834   6.338   7.102   1.563
18925SOL    HW268835   6.392   7.109   1.717
18926SOL     OW68836   6.868   6.391   0.904
18926SOL    HW168837   6.954   6.414   0.948
18926SOL    HW268838   6.793   6.439   0.949
18927SOL     OW68839   5.863   6.625   0.904
18927SOL    HW168840   5.769   6.659   0.896
18927SOL    HW268841   5.883   6.606   1.001
18928SOL     OW68842   6.459   6.461   0.682
18928SOL    HW168843   6.437   6.421   0.593
18928SOL    HW268844   6.394   6.534   0.703
18929SOL     OW68845   6.800   6.890   1.434
18929SOL    HW168846   6.840   6.972   1.476
18929SOL    HW268847   6.700   6.895   1.439
18930SOL     OW68848   5.575   5.886   0.476
18930SOL    HW168849   5.629   5.922   0.400
18930SOL    HW268850   5.630   5.891   0.560
18931SOL     OW68851   7.192   7.368   0.158
18931SOL    HW168852   7.284   7.345   0.191
18931SOL    HW268853   7.199   7.409   0.067
18932SOL     OW68854   6.345   6.294   1.369
18932SOL    HW168855   6.335   6.382   1.415
18932SOL    HW268856   6.393   6.230   1.430
18933SOL     OW68857   5.686   7.320   1.395
18933SOL    HW168858   5.680   7.418   1.414
18933SOL    HW268859   5.674   7.269   1.481
18934SOL     OW68860   6.384   6.382   0.422
18934SOL    HW168861   6.362   6.475   0.393
18934SOL    HW268862   6.432   6.334   0.348
18935SOL     OW68863   5.856   6.084   0.954
18935SOL    HW168864   5.918   6.057   0.880
18935SOL    HW268865   5.907   6.090   1.040
18936SOL     OW68866   5.819   7.323   0.171
18936SOL    HW168867   5.887   7.309   0.099
18936SOL    HW268868   5.865   7.344   0.257
18937SOL     OW68869   5.596   6.714   0.935
18937SOL    HW168870   5.510   6.709   0.884
18937SOL    HW268871   5.595   6.647   1.009
18938SOL     OW68872   5.562   6.659   0.491
18938SOL    HW168873   5.658   6.687   0.490
18938SOL    HW268874   5.535   6.631   0.399
18939SOL     OW68875   7.120   5.856   1.550
18939SOL    HW168876   7.070   5.942   1.550
18939SOL    HW268877   7.179   5.852   1.631
18940SOL     OW68878   6.824   5.767   0.917
18940SOL    HW168879   6.839   5.829   0.840
18940SOL    HW268880   6.862   5.807   1.000
18941SOL     OW68881   6.870   5.606   0.199
18941SOL    HW168882   6.954   5.553   0.197
18941SOL    HW268883   6.792   5.545   0.184
18942SOL     OW68884   7.150   5.577   1.567
18942SOL    HW168885   7.134   5.529   1.480
18942SOL    HW268886   7.125   5.673   1.557
18943SOL     OW68887   6.245   5.835   0.709
18943SOL    HW168888   6.255   5.770   0.785
18943SOL    HW268889   6.328   5.892   0.702
18944SOL     OW68890   6.823   6.169   1.086
18944SOL    HW168891   6.838   6.222   1.002
18944SOL    HW268892   6.858   6.220   1.164
18945SOL     OW68893   7.096   5.590   0.481
18945SOL    HW168894   7.096   5.559   0.386
18945SOL    HW268895   7.004   5.621   0.506
18946SOL     OW68896   6.132   6.909   1.770
18946SOL    HW168897   6.088   6.976   1.711
18946SOL    HW268898   6.222   6.943   1.799
18947SOL     OW68899   5.958   6.637   1.666
18947SOL    HW168900   6.010   6.616   1.582
18947SOL    HW268901   5.969   6.734   1.689
18948SOL     OW68902   5.656   6.914   1.111
18948SOL    HW168903   5.638   6.849   1.037
18948SOL    HW268904   5.577   6.918   1.172
18949SOL     OW68905   6.647   6.097   0.835
18949SOL    HW168906   6.738   6.064   0.809
18949SOL    HW268907   6.624   6.063   0.926
18950SOL     OW68908   7.331   6.177   1.719
18950SOL    HW168909   7.321   6.252   1.654
18950SOL    HW268910   7.427   6.162   1.740
18951SOL     OW68911   6.932   5.916   1.122
18951SOL    HW168912   6.899   6.008   1.103
18951SOL    HW268913   6.912   5.891   1.217
18952SOL     OW68914   7.105   6.047   1.791
18952SOL    HW168915   7.187   6.096   1.761
18952SOL    HW268916   7.127   5.989   1.869
18953SOL     OW68917   6.833   6.337   0.421
18953SOL    HW168918   6.792   6.360   0.510
18953SOL    HW268919   6.933   6.344   0.428
18954SOL     OW68920   7.086   6.319   0.722
18954SOL    HW168921   7.086   6.328   0.622
18954SOL    HW268922   6.997   6.349   0.758
18955SOL     OW68923   7.310   6.380   1.537
18955SOL    HW168924   7.240   6.452   1.541
18955SOL    HW268925   7.398   6.421   1.512
18956SOL     OW68926   7.096   5.792   0.250
18956SOL    HW168927   7.109   5.829   0.342
18956SOL    HW268928   7.005   5.751   0.243
18957SOL     OW68929   6.271   7.020   1.428
18957SOL    HW168930   6.215   7.100   1.408
18957SOL    HW268931   6.232   6.940   1.383
18958SOL     OW68932   5.667   5.837   1.694
18958SOL    HW168933   5.681   5.840   1.595
18958SOL    HW268934   5.573   5.810   1.714
18959SOL     OW68935   5.643   7.199   1.643
18959SOL    HW168936   5.726   7.213   1.696
18959SOL    HW268937   5.563   7.217   1.702
18960SOL     OW68938   5.729   5.877   0.700
18960SOL    HW168939   5.691   5.955   0.750
18960SOL    HW268940   5.789   5.825   0.761
18961SOL     OW68941   6.922   7.111   1.532
18961SOL    HW168942   6.851   7.170   1.571
18961SOL    HW268943   6.962   7.155   1.452
18962SOL     OW68944   7.313   5.801   1.358
18962SOL    HW168945   7.241   5.828   1.422
18962SOL    HW268946   7.282   5.818   1.264
18963SOL     OW68947   5.907   7.339   0.689
18963SOL    HW168948   5.841   7.263   0.695
18963SOL    HW268949   5.923   7.362   0.593
18964SOL     OW68950   5.888   6.838   1.244
18964SOL    HW168951   5.883   6.866   1.340
18964SOL    HW268952   5.810   6.875   1.194
18965SOL     OW68953   6.701   7.096   1.823
18965SOL    HW168954   6.682   7.002   1.795
18965SOL    HW268955   6.703   7.155   1.743
18966SOL     OW68956   6.281   6.800   0.512
18966SOL    HW168957   6.304   6.738   0.437
18966SOL    HW268958   6.281   6.749   0.599
18967SOL     OW68959   5.921   6.372   0.795
18967SOL    HW168960   5.918   6.467   0.825
18967SOL    HW268961   6.014   6.336   0.807
18968SOL     OW68962   5.733   5.971   0.271
18968SOL    HW168963   5.792   5.925   0.204
18968SOL    HW268964   5.683   6.045   0.226
18969SOL     OW68965   5.608   6.077   0.840
18969SOL    HW168966   5.537   6.135   0.880
18969SOL    HW268967   5.694   6.088   0.891
18970SOL     OW68968   6.045   6.669   0.312
18970SOL    HW168969   6.143   6.651   0.320
18970SOL    HW268970   6.031   6.756   0.265
18971SOL     OW68971   6.685   6.245   9.985
18971SOL    HW168972   6.700   6.335   9.943
18971SOL    HW268973   6.773   6.201   0.001
18972SOL     OW68974   6.490   6.282   0.171
18972SOL    HW168975   6.562   6.264   0.103
18972SOL    HW268976   6.437   6.199   0.185
18973SOL     OW68977   6.851   5.700   0.543
18973SOL    HW168978   6.757   5.698   0.577
18973SOL    HW268979   6.875   5.793   0.516
18974SOL     OW68980   6.950   6.075   1.517
18974SOL    HW168981   6.898   6.100   1.598
18974SOL    HW268982   6.896   6.014   1.460
18975SOL     OW68983   5.696   5.645   0.034
18975SOL    HW168984   5.695   5.580   9.958
18975SOL    HW268985   5.664   5.601   0.117
18976SOL     OW68986   5.901   6.576   1.170
18976SOL    HW168987   5.893   6.514   1.249
18976SOL    HW268988   5.904   6.670   1.202
18977SOL     OW68989   6.144   6.205   1.199
18977SOL    HW168990   6.201   6.241   1.272
18977SOL    HW268991   6.060   6.167   1.238
18978SOL     OW68992   6.356   6.535   1.501
18978SOL    HW168993   6.417   6.586   1.441
18978SOL    HW268994   6.343   6.585   1.587
18979SOL     OW68995   6.707   6.573   1.705
18979SOL    HW168996   6.626   6.516   1.714
18979SOL    HW268997   6.788   6.522   1.734
18980SOL     OW68998   6.590   5.755   0.644
18980SOL    HW168999   6.543   5.843   0.645
18980SOL    HW269000   6.585   5.712   0.734
18981SOL     OW69001   6.718   7.269   1.610
18981SOL    HW169002   6.654   7.271   1.533
18981SOL    HW269003   6.725   7.361   1.649
18982SOL     OW69004   6.296   5.674   0.925
18982SOL    HW169005   6.264   5.584   0.955
18982SOL    HW269006   6.396   5.673   0.919
18983SOL     OW69007   5.890   7.256   1.212
18983SOL    HW169008   5.840   7.221   1.133
18983SOL    HW269009   5.825   7.281   1.284
18984SOL     OW69010   6.488   6.820   0.882
18984SOL    HW169011   6.519   6.864   0.797
18984SOL    HW269012   6.567   6.791   0.936
18985SOL     OW69013   6.184   6.511   0.967
18985SOL    HW169014   6.198   6.423   0.921
18985SOL    HW269015   6.114   6.501   1.037
18986SOL     OW69016   5.618   6.529   1.129
18986SOL    HW169017   5.708   6.539   1.172
18986SOL    HW269018   5.622   6.460   1.057
18987SOL     OW69019   5.803   5.560   0.527
18987SOL    HW169020   5.849   5.647   0.512
18987SOL    HW269021   5.704   5.574   0.528
18988SOL     OW69022   6.237   6.186   1.693
18988SOL    HW169023   6.181   6.238   1.628
18988SOL    HW269024   6.327   6.170   1.653
18989SOL     OW69025   7.317   5.761   0.875
18989SOL    HW169026   7.286   5.792   0.965
18989SOL    HW269027   7.417   5.757   0.874
18990SOL     OW69028   6.326   6.718   1.089
18990SOL    HW169029   6.282   6.638   1.049
18990SOL    HW269030   6.383   6.762   1.020
18991SOL     OW69031   6.809   6.107   0.280
18991SOL    HW169032   6.814   6.196   0.325
18991SOL    HW269033   6.853   6.113   0.190
18992SOL     OW69034   7.102   6.952   1.662
18992SOL    HW169035   7.059   6.874   1.709
18992SOL    HW269036   7.031   7.010   1.621
18993SOL     OW69037   5.781   6.417   1.369
18993SOL    HW169038   5.804   6.330   1.412
18993SOL    HW269039   5.747   6.481   1.438
18994SOL     OW69040   6.289   6.908   0.103
18994SOL    HW169041   6.286   7.003   0.132
18994SOL    HW269042   6.377   6.868   0.129
18995SOL     OW69043   6.126   7.303   1.065
18995SOL    HW169044   6.130   7.241   0.986
18995SOL    HW269045   6.040   7.289   1.114
18996SOL     OW69046   6.282   6.669   0.762
18996SOL    HW169047   6.351   6.728   0.804
18996SOL    HW269048   6.240   6.611   0.832
18997SOL     OW69049   5.671   6.364   0.916
18997SOL    HW169050   5.762   6.347   0.877
18997SOL    HW269051   5.610   6.397   0.845
18998SOL     OW69052   5.569   6.447   1.813
18998SOL    HW169053   5.469   6.442   1.808
18998SOL    HW269054   5.601   6.389   1.889
18999SOL     OW69055   6.536   7.248   1.401
18999SOL    HW169056   6.475   7.219   1.476
18999SOL    HW269057   6.482   7.265   1.319
19000SOL     OW69058   6.713   6.762   1.021
19000SOL    HW169059   6.767   6.846   1.020
19000SOL    HW269060   6.745   6.703   1.096
19001SOL     OW69061   6.061   5.939   1.774
19001SOL    HW169062   6.127   5.920   1.702
19001SOL    HW269063   6.070   6.034   1.804
19002SOL     OW69064   7.090   6.460   1.045
19002SOL    HW169065   7.188   6.464   1.060
19002SOL    HW269066   7.043   6.513   1.116
19003SOL     OW69067   6.878   5.844   1.380
19003SOL    HW169068   6.953   5.814   1.439
19003SOL    HW269069   6.816   5.767   1.363
19004SOL     OW69070   5.533   5.621   0.482
19004SOL    HW169071   5.436   5.599   0.488
19004SOL    HW269072   5.546   5.720   0.481
19005SOL     OW69073   6.814   5.653   1.746
19005SOL    HW169074   6.861   5.645   1.834
19005SOL    HW269075   6.754   5.734   1.748
19006SOL     OW69076   6.008   7.113   1.632
19006SOL    HW169077   5.961   7.175   1.696
19006SOL    HW269078   6.047   7.167   1.557
19007SOL     OW69079   7.328   6.961   1.521
19007SOL    HW169080   7.380   7.040   1.553
19007SOL    HW269081   7.243   6.953   1.572
19008SOL     OW69082   6.572   6.046   1.097
19008SOL    HW169083   6.654   6.101   1.110
19008SOL    HW269084   6.568   5.974   1.166
19009SOL     OW69085   5.989   7.019   0.686
19009SOL    HW169086   5.990   6.920   0.693
19009SOL    HW269087   5.894   7.052   0.686
19010SOL     OW69088   6.745   7.148   1.236
19010SOL    HW169089   6.667   7.178   1.291
19010SOL    HW269090   6.829   7.190   1.270
19011SOL     OW69091   5.857   7.266   1.812
19011SOL    HW169092   5.879   7.363   1.821
19011SOL    HW269093   5.860   7.223   1.902
19012SOL     OW69094   5.670   6.813   1.659
19012SOL    HW169095   5.663   6.718   1.631
19012SOL    HW269096   5.601   6.867   1.612
19013SOL     OW69097   5.723   7.159   1.010
19013SOL    HW169098   5.702   7.067   1.044
19013SOL    HW269099   5.731   7.157   0.911
19014SOL     OW69100   6.574   5.653   0.903
19014SOL    HW169101   6.664   5.694   0.916
19014SOL    HW269102   6.562   5.579   0.969
19015SOL     OW69103   7.174   5.962   0.747
19015SOL    HW169104   7.208   6.047   0.787
19015SOL    HW269105   7.223   5.885   0.788
19016SOL     OW69106   6.331   6.630   0.294
19016SOL    HW169107   6.403   6.690   0.258
19016SOL    HW269108   6.302   6.566   0.223
19017SOL     OW69109   6.467   5.636   0.110
19017SOL    HW169110   6.511   5.547   0.123
19017SOL    HW269111   6.536   5.708   0.112
19018SOL     OW69112   6.034   6.014   0.760
19018SOL    HW169113   6.101   5.940   0.751
19018SOL    HW269114   6.047   6.080   0.686
19019SOL     OW69115   6.099   6.588   1.437
19019SOL    HW169116   6.191   6.560   1.463
19019SOL    HW269117   6.103   6.672   1.384
19020SOL     OW69118   7.267   6.640   1.334
19020SOL    HW169119   7.284   6.733   1.302
19020SOL    HW269120   7.294   6.574   1.264
19021SOL     OW69121   5.783   6.919   0.090
19021SOL    HW169122   5.779   6.836   0.035
19021SOL    HW269123   5.872   6.924   0.136
19022SOL     OW69124   6.283   7.152   0.225
19022SOL    HW169125   6.240   7.237   0.193
19022SOL    HW269126   6.241   7.124   0.312
19023SOL     OW69127   6.860   6.635   1.488
19023SOL    HW169128   6.801   6.600   1.561
19023SOL    HW269129   6.840   6.731   1.471
19024SOL     OW69130   6.101   7.246   1.405
19024SOL    HW169131   6.137   7.339   1.412
19024SOL    HW269132   6.031   7.243   1.333
19025SOL     OW69133   5.721   6.100   1.740
19025SOL    HW169134   5.706   6.002   1.730
19025SOL    HW269135   5.797   6.117   1.803
19026SOL     OW69136   7.151   7.129   1.106
19026SOL    HW169137   7.219   7.201   1.111
19026SOL    HW269138   7.190   7.044   1.141
19027SOL     OW69139   5.526   6.464   0.694
19027SOL    HW169140   5.557   6.536   0.631
19027SOL    HW269141   5.427   6.463   0.697
19028SOL     OW69142   6.071   6.323   1.530
19028SOL    HW169143   5.983   6.276   1.522
19028SOL    HW269144   6.065   6.413   1.488
19029SOL     OW69145   6.280   6.078   1.006
19029SOL    HW169146   6.377   6.070   1.028
19029SOL    HW269147   6.233   6.127   1.079
19030SOL     OW69148   6.159   6.814   1.286
19030SOL    HW169149   6.066   6.834   1.253
19030SOL    HW269150   6.216   6.787   1.208
19031SOL     OW69151   5.692   6.231   1.173
19031SOL    HW169152   5.711   6.308   1.235
19031SOL    HW269153   5.697   6.263   1.078
19032SOL     OW69154   5.879   6.908   1.505
19032SOL    HW169155   5.926   6.985   1.548
19032SOL    HW269156   5.804   6.877   1.564
19033SOL     OW69157   6.141   5.937   0.477
19033SOL    HW169158   6.048   5.902   0.462
19033SOL    HW269159   6.183   5.888   0.553
19034SOL     OW69160   7.166   5.557   0.752
19034SOL    HW169161   7.141   5.584   0.659
19034SOL    HW269162   7.222   5.629   0.793
19035SOL     OW69163   6.675   6.257   1.393
19035SOL    HW169164   6.774   6.269   1.381
19035SOL    HW269165   6.627   6.311   1.323
19036SOL     OW69166   6.194   6.276   0.822
19036SOL    HW169167   6.216   6.202   0.886
19036SOL    HW269168   6.221   6.250   0.730
19037SOL     OW69169   6.858   6.998   1.039
19037SOL    HW169170   6.802   7.052   1.102
19037SOL    HW269171   6.925   7.058   0.995
19038SOL     OW69172   6.889   5.980   0.748
19038SOL    HW169173   6.879   5.977   0.649
19038SOL    HW269174   6.986   5.984   0.772
19039SOL     OW69175   6.631   6.954   2.594
19039SOL    HW169176   6.728   6.979   2.592
19039SOL    HW269177   6.588   6.983   2.508
19040SOL     OW69178   7.170   6.789   2.369
19040SOL    HW169179   7.167   6.832   2.459
19040SOL    HW269180   7.248   6.726   2.365
19041SOL     OW69181   7.148   6.223   3.232
19041SOL    HW169182   7.079   6.180   3.289
19041SOL    HW269183   7.206   6.282   3.288
19042SOL     OW69184   5.880   5.755   1.833
19042SOL    HW169185   5.797   5.774   1.781
19042SOL    HW269186   5.951   5.820   1.807
19043SOL     OW69187   6.909   7.052   2.602
19043SOL    HW169188   6.894   7.127   2.538
19043SOL    HW269189   7.000   7.014   2.589
19044SOL     OW69190   6.749   5.637   3.235
19044SOL    HW169191   6.659   5.606   3.266
19044SOL    HW269192   6.784   5.573   3.167
19045SOL     OW69193   6.527   6.438   3.606
19045SOL    HW169194   6.511   6.369   3.535
19045SOL    HW269195   6.442   6.454   3.656
19046SOL     OW69196   6.123   7.005   2.248
19046SOL    HW169197   6.073   7.039   2.327
19046SOL    HW269198   6.190   6.937   2.278
19047SOL     OW69199   6.067   5.607   1.969
19047SOL    HW169200   6.161   5.642   1.965
19047SOL    HW269201   6.007   5.667   1.917
19048SOL     OW69202   7.115   6.639   3.378
19048SOL    HW169203   7.020   6.664   3.363
19048SOL    HW269204   7.170   6.670   3.300
19049SOL     OW69205   6.988   6.630   3.083
19049SOL    HW169206   6.931   6.658   3.160
19049SOL    HW269207   7.082   6.661   3.098
19050SOL     OW69208   6.020   6.771   2.561
19050SOL    HW169209   5.969   6.720   2.629
19050SOL    HW269210   6.117   6.748   2.568
19051SOL     OW69211   6.257   6.152   2.411
19051SOL    HW169212   6.288   6.228   2.355
19051SOL    HW269213   6.234   6.074   2.352
19052SOL     OW69214   6.797   6.101   3.625
19052SOL    HW169215   6.894   6.089   3.648
19052SOL    HW269216   6.750   6.013   3.636
19053SOL     OW69217   5.985   6.916   2.007
19053SOL    HW169218   6.041   6.923   1.924
19053SOL    HW269219   6.028   6.968   2.081
19054SOL     OW69220   6.102   5.890   2.888
19054SOL    HW169221   6.166   5.966   2.876
19054SOL    HW269222   6.140   5.808   2.844
19055SOL     OW69223   5.882   6.285   2.360
19055SOL    HW169224   5.911   6.313   2.452
19055SOL    HW269225   5.784   6.265   2.361
19056SOL     OW69226   6.345   7.252   2.427
19056SOL    HW169227   6.406   7.180   2.394
19056SOL    HW269228   6.345   7.328   2.362
19057SOL     OW69229   7.336   7.012   2.359
19057SOL    HW169230   7.423   7.005   2.310
19057SOL    HW269231   7.273   6.941   2.327
19058SOL     OW69232   7.134   5.811   2.999
19058SOL    HW169233   7.188   5.846   2.923
19058SOL    HW269234   7.041   5.847   2.992
19059SOL     OW69235   6.604   5.923   2.173
19059SOL    HW169236   6.651   6.010   2.184
19059SOL    HW269237   6.613   5.869   2.257
19060SOL     OW69238   5.745   6.591   3.453
19060SOL    HW169239   5.835   6.625   3.480
19060SOL    HW269240   5.703   6.542   3.529
19061SOL     OW69241   6.041   6.216   1.879
19061SOL    HW169242   6.015   6.312   1.885
19061SOL    HW269243   6.121   6.207   1.819
19062SOL     OW69244   6.226   7.136   2.640
19062SOL    HW169245   6.278   7.185   2.570
19062SOL    HW269246   6.142   7.100   2.601
19063SOL     OW69247   6.531   6.211   3.438
19063SOL    HW169248   6.585   6.149   3.496
19063SOL    HW269249   6.592   6.255   3.371
19064SOL     OW69250   7.180   6.972   2.590
19064SOL    HW169251   7.207   7.012   2.678
19064SOL    HW269252   7.242   7.004   2.518
19065SOL     OW69253   5.879   6.786   2.325
19065SOL    HW169254   5.931   6.780   2.410
19065SOL    HW269255   5.929   6.739   2.252
19066SOL     OW69256   6.724   5.869   1.931
19066SOL    HW169257   6.797   5.804   1.951
19066SOL    HW269258   6.674   5.890   2.015
19067SOL     OW69259   5.912   6.072   3.134
19067SOL    HW169260   5.909   5.975   3.110
19067SOL    HW269261   5.847   6.123   3.078
19068SOL     OW69262   6.932   6.363   3.137
19068SOL    HW169263   6.954   6.458   3.117
19068SOL    HW269264   7.014   6.315   3.167
19069SOL     OW69265   5.934   5.837   2.291
19069SOL    HW169266   5.881   5.873   2.368
19069SOL    HW269267   5.880   5.845   2.207
19070SOL     OW69268   7.023   7.347   3.174
19070SOL    HW169269   6.976   7.316   3.091
19070SOL    HW269270   7.069   7.434   3.156
19071SOL     OW69271   7.289   6.173   3.000
19071SOL    HW169272   7.387   6.177   3.018
19071SOL    HW269273   7.239   6.181   3.087
19072SOL     OW69274   6.475   6.010   2.512
19072SOL    HW169275   6.536   6.067   2.567
19072SOL    HW269276   6.400   6.067   2.477
19073SOL     OW69277   6.784   6.511   2.009
19073SOL    HW169278   6.812   6.468   2.095
19073SOL    HW269279   6.735   6.444   1.953
19074SOL     OW69280   6.661   5.863   3.668
19074SOL    HW169281   6.679   5.862   3.766
19074SOL    HW269282   6.566   5.838   3.650
19075SOL     OW69283   7.298   6.229   2.259
19075SOL    HW169284   7.230   6.157   2.271
19075SOL    HW269285   7.360   6.230   2.337
19076SOL     OW69286   6.526   7.252   1.975
19076SOL    HW169287   6.580   7.188   1.920
19076SOL    HW269288   6.462   7.201   2.032
19077SOL     OW69289   6.328   5.608   3.594
19077SOL    HW169290   6.339   5.513   3.565
19077SOL    HW269291   6.335   5.613   3.694
19078SOL     OW69292   7.098   6.236   2.817
19078SOL    HW169293   7.099   6.336   2.819
19078SOL    HW269294   7.168   6.202   2.880
19079SOL     OW69295   6.653   6.859   3.611
19079SOL    HW169296   6.681   6.766   3.586
19079SOL    HW269297   6.627   6.909   3.528
19080SOL     OW69298   6.307   6.686   3.573
19080SOL    HW169299   6.256   6.772   3.583
19080SOL    HW269300   6.297   6.632   3.656
19081SOL     OW69301   6.797   5.547   2.801
19081SOL    HW169302   6.798   5.647   2.798
19081SOL    HW269303   6.739   5.512   2.727
19082SOL     OW69304   7.261   5.754   3.600
19082SOL    HW169305   7.226   5.779   3.690
19082SOL    HW269306   7.209   5.675   3.565
19083SOL     OW69307   5.617   6.244   2.425
19083SOL    HW169308   5.626   6.178   2.500
19083SOL    HW269309   5.590   6.333   2.462
19084SOL     OW69310   5.878   5.713   2.616
19084SOL    HW169311   5.946   5.752   2.680
19084SOL    HW269312   5.880   5.614   2.622
19085SOL     OW69313   5.921   5.796   3.072
19085SOL    HW169314   5.922   5.696   3.078
19085SOL    HW269315   5.990   5.826   3.006
19086SOL     OW69316   6.607   6.413   2.772
19086SOL    HW169317   6.565   6.481   2.712
19086SOL    HW269318   6.614   6.326   2.724
19087SOL     OW69319   5.794   7.056   2.271
19087SOL    HW169320   5.819   6.959   2.272
19087SOL    HW269321   5.837   7.101   2.193
19088SOL     OW69322   7.019   7.004   3.121
19088SOL    HW169323   6.967   7.008   3.036
19088SOL    HW269324   6.966   7.046   3.195
19089SOL     OW69325   5.776   7.229   2.476
19089SOL    HW169326   5.713   7.305   2.461
19089SOL    HW269327   5.772   7.166   2.398
19090SOL     OW69328   7.284   6.973   3.115
19090SOL    HW169329   7.320   6.994   3.206
19090SOL    HW269330   7.185   6.986   3.114
19091SOL     OW69331   6.011   6.489   1.893
19091SOL    HW169332   5.986   6.535   1.807
19091SOL    HW269333   5.989   6.549   1.970
19092SOL     OW69334   6.473   6.694   3.113
19092SOL    HW169335   6.502   6.602   3.087
19092SOL    HW269336   6.404   6.726   3.049
19093SOL     OW69337   5.651   6.310   2.036
19093SOL    HW169338   5.730   6.249   2.047
19093SOL    HW269339   5.574   6.275   2.090
19094SOL     OW69340   7.130   6.450   2.271
19094SOL    HW169341   7.195   6.374   2.266
19094SOL    HW269342   7.150   6.516   2.198
19095SOL     OW69343   6.458   7.329   2.964
19095SOL    HW169344   6.464   7.233   2.992
19095SOL    HW269345   6.364   7.349   2.936
19096SOL     OW69346   6.284   6.452   1.922
19096SOL    HW169347   6.314   6.362   1.954
19096SOL    HW269348   6.184   6.453   1.911
19097SOL     OW69349   6.879   5.995   2.312
19097SOL    HW169350   6.835   6.059   2.250
19097SOL    HW269351   6.976   6.019   2.323
19098SOL     OW69352   5.848   6.211   3.359
19098SOL    HW169353   5.871   6.147   3.286
19098SOL    HW269354   5.803   6.162   3.434
19099SOL     OW69355   5.702   5.806   3.241
19099SOL    HW169356   5.784   5.804   3.183
19099SOL    HW269357   5.627   5.849   3.191
19100SOL     OW69358   6.539   6.441   3.040
19100SOL    HW169359   6.563   6.421   2.945
19100SOL    HW269360   6.468   6.377   3.070
19101SOL     OW69361   7.143   6.026   2.360
19101SOL    HW169362   7.169   5.935   2.329
19101SOL    HW269363   7.145   6.030   2.460
19102SOL     OW69364   6.410   6.976   2.766
19102SOL    HW169365   6.490   6.970   2.707
19102SOL    HW269366   6.340   7.033   2.722
19103SOL     OW69367   6.357   5.929   2.071
19103SOL    HW169368   6.290   5.919   2.145
19103SOL    HW269369   6.449   5.928   2.108
19104SOL     OW69370   6.521   6.818   1.992
19104SOL    HW169371   6.573   6.804   2.076
19104SOL    HW269372   6.582   6.813   1.913
19105SOL     OW69373   6.740   6.479   2.445
19105SOL    HW169374   6.770   6.516   2.533
19105SOL    HW269375   6.645   6.504   2.429
19106SOL     OW69376   6.842   6.546   2.693
19106SOL    HW169377   6.781   6.481   2.738
19106SOL    HW269378   6.852   6.628   2.749
19107SOL     OW69379   5.865   6.628   2.741
19107SOL    HW169380   5.775   6.669   2.725
19107SOL    HW269381   5.877   6.611   2.839
19108SOL     OW69382   6.482   6.544   2.384
19108SOL    HW169383   6.436   6.474   2.328
19108SOL    HW269384   6.417   6.582   2.450
19109SOL     OW69385   5.584   5.860   2.262
19109SOL    HW169386   5.642   5.873   2.182
19109SOL    HW269387   5.637   5.876   2.345
19110SOL     OW69388   6.365   6.311   3.224
19110SOL    HW169389   6.355   6.401   3.265
19110SOL    HW269390   6.419   6.252   3.284
19111SOL     OW69391   5.598   7.416   3.218
19111SOL    HW169392   5.607   7.514   3.232
19111SOL    HW269393   5.592   7.370   3.307
19112SOL     OW69394   6.336   6.353   2.245
19112SOL    HW169395   6.241   6.383   2.231
19112SOL    HW269396   6.369   6.307   2.162
19113SOL     OW69397   5.873   6.013   2.760
19113SOL    HW169398   5.929   6.021   2.678
19113SOL    HW269399   5.929   5.980   2.836
19114SOL     OW69400   5.915   7.242   2.093
19114SOL    HW169401   6.007   7.268   2.064
19114SOL    HW269402   5.876   7.316   2.148
19115SOL     OW69403   6.875   7.275   2.950
19115SOL    HW169404   6.876   7.331   2.868
19115SOL    HW269405   6.880   7.178   2.925
19116SOL     OW69406   5.598   6.737   2.781
19116SOL    HW169407   5.513   6.745   2.729
19116SOL    HW269408   5.589   6.667   2.851
19117SOL     OW69409   6.277   5.611   2.244
19117SOL    HW169410   6.290   5.609   2.145
19117SOL    HW269411   6.250   5.703   2.272
19118SOL     OW69412   5.631   6.663   2.348
19118SOL    HW169413   5.714   6.717   2.358
19118SOL    HW269414   5.625   6.627   2.255
19119SOL     OW69415   7.108   5.892   3.416
19119SOL    HW169416   7.076   5.983   3.442
19119SOL    HW269417   7.162   5.853   3.490
19120SOL     OW69418   6.755   5.819   2.780
19120SOL    HW169419   6.783   5.877   2.704
19120SOL    HW269420   6.797   5.851   2.865
19121SOL     OW69421   6.928   5.690   2.005
19121SOL    HW169422   7.008   5.631   1.998
19121SOL    HW269423   6.897   5.693   2.099
19122SOL     OW69424   7.078   5.568   3.503
19122SOL    HW169425   7.073   5.553   3.404
19122SOL    HW269426   6.991   5.608   3.534
19123SOL     OW69427   6.256   5.836   2.558
19123SOL    HW169428   6.242   5.763   2.625
19123SOL    HW269429   6.349   5.872   2.567
19124SOL     OW69430   6.851   6.189   2.944
19124SOL    HW169431   6.926   6.199   2.878
19124SOL    HW269432   6.864   6.253   3.019
19125SOL     OW69433   7.185   5.778   2.251
19125SOL    HW169434   7.264   5.728   2.215
19125SOL    HW269435   7.111   5.714   2.269
19126SOL     OW69436   6.116   6.925   3.618
19126SOL    HW169437   6.083   6.996   3.556
19126SOL    HW269438   6.194   6.960   3.670
19127SOL     OW69439   5.992   6.682   3.528
19127SOL    HW169440   6.036   6.660   3.441
19127SOL    HW269441   6.024   6.771   3.561
19128SOL     OW69442   5.660   6.950   2.949
19128SOL    HW169443   5.643   6.884   2.876
19128SOL    HW269444   5.586   6.947   3.015
19129SOL     OW69445   6.640   6.158   2.671
19129SOL    HW169446   6.724   6.113   2.640
19129SOL    HW269447   6.617   6.126   2.763
19130SOL     OW69448   7.279   6.188   3.570
19130SOL    HW169449   7.272   6.262   3.504
19130SOL    HW269450   7.375   6.174   3.595
19131SOL     OW69451   6.876   5.923   3.001
19131SOL    HW169452   6.873   6.021   2.984
19131SOL    HW269453   6.871   5.907   3.100
19132SOL     OW69454   7.062   6.053   3.672
19132SOL    HW169455   7.141   6.105   3.638
19132SOL    HW269456   7.095   5.975   3.725
19133SOL     OW69457   6.870   6.383   2.235
19133SOL    HW169458   6.819   6.416   2.314
19133SOL    HW269459   6.967   6.403   2.247
19134SOL     OW69460   7.083   6.523   2.535
19134SOL    HW169461   7.081   6.499   2.438
19134SOL    HW269462   6.992   6.509   2.574
19135SOL     OW69463   7.284   6.403   3.384
19135SOL    HW169464   7.221   6.480   3.375
19135SOL    HW269465   7.373   6.436   3.414
19136SOL     OW69466   7.145   5.870   1.989
19136SOL    HW169467   7.179   5.866   2.083
19136SOL    HW269468   7.061   5.815   1.982
19137SOL     OW69469   6.231   7.057   3.291
19137SOL    HW169470   6.171   7.131   3.261
19137SOL    HW269471   6.210   6.974   3.239
19138SOL     OW69472   5.691   5.800   3.513
19138SOL    HW169473   5.697   5.797   3.413
19138SOL    HW269474   5.601   5.767   3.542
19139SOL     OW69475   5.586   7.269   3.463
19139SOL    HW169476   5.674   7.283   3.508
19139SOL    HW269477   5.513   7.273   3.531
19140SOL     OW69478   5.736   5.899   2.481
19140SOL    HW169479   5.704   5.970   2.543
19140SOL    HW269480   5.782   5.827   2.533
19141SOL     OW69481   6.905   7.163   3.335
19141SOL    HW169482   6.823   7.198   3.381
19141SOL    HW269483   6.947   7.237   3.282
19142SOL     OW69484   5.871   6.143   2.086
19142SOL    HW169485   5.942   6.166   2.019
19142SOL    HW269486   5.896   6.180   2.175
19143SOL     OW69487   7.284   5.812   3.226
19143SOL    HW169488   7.221   5.846   3.295
19143SOL    HW269489   7.239   5.810   3.137
19144SOL     OW69490   6.003   7.373   2.553
19144SOL    HW169491   5.925   7.320   2.522
19144SOL    HW269492   6.086   7.341   2.507
19145SOL     OW69493   5.877   6.857   3.092
19145SOL    HW169494   5.868   6.885   3.188
19145SOL    HW269495   5.805   6.900   3.038
19146SOL     OW69496   6.768   7.092   3.700
19146SOL    HW169497   6.727   7.004   3.677
19146SOL    HW269498   6.731   7.163   3.641
19147SOL     OW69499   6.307   6.821   2.334
19147SOL    HW169500   6.320   6.759   2.257
19147SOL    HW269501   6.313   6.768   2.419
19148SOL     OW69502   5.931   6.374   2.626
19148SOL    HW169503   5.923   6.469   2.657
19148SOL    HW269504   6.021   6.338   2.650
19149SOL     OW69505   5.778   5.881   2.062
19149SOL    HW169506   5.819   5.838   1.982
19149SOL    HW269507   5.804   5.978   2.066
19150SOL     OW69508   5.636   6.094   2.659
19150SOL    HW169509   5.605   6.177   2.705
19150SOL    HW269510   5.718   6.060   2.705
19151SOL     OW69511   6.038   6.673   2.117
19151SOL    HW169512   6.138   6.674   2.118
19151SOL    HW269513   6.004   6.756   2.073
19152SOL     OW69514   6.660   6.249   1.899
19152SOL    HW169515   6.605   6.305   1.837
19152SOL    HW269516   6.726   6.195   1.847
19153SOL     OW69517   6.400   6.212   2.015
19153SOL    HW169518   6.491   6.218   1.976
19153SOL    HW269519   6.370   6.117   2.017
19154SOL     OW69520   6.860   5.727   2.268
19154SOL    HW169521   6.779   5.697   2.319
19154SOL    HW269522   6.874   5.824   2.283
19155SOL     OW69523   6.941   6.124   3.377
19155SOL    HW169524   6.888   6.150   3.458
19155SOL    HW269525   6.896   6.047   3.331
19156SOL     OW69526   5.628   5.618   2.036
19156SOL    HW169527   5.706   5.557   2.050
19156SOL    HW269528   5.658   5.713   2.040
19157SOL     OW69529   5.864   6.594   3.017
19157SOL    HW169530   5.861   6.533   3.096
19157SOL    HW269531   5.877   6.688   3.047
19158SOL     OW69532   7.196   6.604   2.054
19158SOL    HW169533   7.295   6.611   2.069
19158SOL    HW269534   7.178   6.589   1.957
19159SOL     OW69535   6.161   6.199   3.068
19159SOL    HW169536   6.215   6.244   3.139
19159SOL    HW269537   6.076   6.165   3.107
19160SOL     OW69538   6.371   6.562   3.338
19160SOL    HW169539   6.419   6.623   3.275
19160SOL    HW269540   6.363   6.606   3.428
19161SOL     OW69541   6.726   6.607   3.526
19161SOL    HW169542   6.643   6.556   3.547
19161SOL    HW269543   6.806   6.551   3.548
19162SOL     OW69544   6.607   5.788   2.419
19162SOL    HW169545   6.565   5.874   2.448
19162SOL    HW269546   6.591   5.718   2.489
19163SOL     OW69547   6.658   7.263   3.491
19163SOL    HW169548   6.563   7.295   3.493
19163SOL    HW269549   6.719   7.338   3.518
19164SOL     OW69550   6.196   5.663   2.768
19164SOL    HW169551   6.139   5.581   2.774
19164SOL    HW269552   6.289   5.640   2.797
19165SOL     OW69553   5.842   7.368   3.087
19165SOL    HW169554   5.821   7.311   3.008
19165SOL    HW269555   5.760   7.380   3.142
19166SOL     OW69556   6.571   6.708   2.700
19166SOL    HW169557   6.598   6.791   2.652
19166SOL    HW269558   6.626   6.697   2.783
19167SOL     OW69559   6.202   6.528   2.779
19167SOL    HW169560   6.211   6.437   2.738
19167SOL    HW269561   6.143   6.522   2.860
19168SOL     OW69562   5.594   6.537   2.967
19168SOL    HW169563   5.687   6.556   3.001
19168SOL    HW269564   5.599   6.464   2.899
19169SOL     OW69565   5.857   5.560   2.331
19169SOL    HW169566   5.906   5.647   2.338
19169SOL    HW269567   5.765   5.572   2.369
19170SOL     OW69568   6.258   6.200   3.531
19170SOL    HW169569   6.203   6.255   3.468
19170SOL    HW269570   6.353   6.198   3.498
19171SOL     OW69571   5.644   6.586   2.087
19171SOL    HW169572   5.662   6.491   2.063
19171SOL    HW269573   5.692   6.647   2.024
19172SOL     OW69574   7.303   5.886   2.794
19172SOL    HW169575   7.359   5.804   2.805
19172SOL    HW269576   7.363   5.965   2.779
19173SOL     OW69577   6.299   6.765   2.911
19173SOL    HW169578   6.275   6.686   2.854
19173SOL    HW269579   6.338   6.837   2.854
19174SOL     OW69580   6.743   6.163   2.146
19174SOL    HW169581   6.787   6.242   2.187
19174SOL    HW269582   6.709   6.186   2.055
19175SOL     OW69583   7.071   7.021   3.497
19175SOL    HW169584   7.024   6.940   3.533
19175SOL    HW269585   7.010   7.071   3.436
19176SOL     OW69586   5.771   6.436   3.229
19176SOL    HW169587   5.799   6.350   3.273
19176SOL    HW269588   5.760   6.507   3.298
19177SOL     OW69589   6.365   7.007   1.865
19177SOL    HW169590   6.333   7.065   1.940
19177SOL    HW269591   6.426   6.936   1.901
19178SOL     OW69592   6.196   7.297   2.862
19178SOL    HW169593   6.203   7.236   2.783
19178SOL    HW269594   6.131   7.258   2.928
19179SOL     OW69595   6.325   6.670   2.578
19179SOL    HW169596   6.413   6.696   2.620
19179SOL    HW269597   6.273   6.613   2.642
19180SOL     OW69598   6.502   7.026   2.359
19180SOL    HW169599   6.568   7.031   2.284
19180SOL    HW269600   6.437   6.953   2.341
19181SOL     OW69601   5.674   6.363   2.756
19181SOL    HW169602   5.767   6.352   2.720
19181SOL    HW269603   5.618   6.409   2.688
19182SOL     OW69604   5.622   6.459   3.653
19182SOL    HW169605   5.550   6.423   3.594
19182SOL    HW269606   5.629   6.404   3.736
19183SOL     OW69607   6.794   6.747   2.920
19183SOL    HW169608   6.736   6.783   2.991
19183SOL    HW269609   6.869   6.695   2.961
19184SOL     OW69610   6.061   5.948   3.644
19184SOL    HW169611   6.139   5.932   3.584
19184SOL    HW269612   6.060   6.043   3.674
19185SOL     OW69613   6.076   6.417   2.219
19185SOL    HW169614   6.046   6.507   2.188
19185SOL    HW269615   6.001   6.372   2.269
19186SOL     OW69616   7.119   6.506   2.867
19186SOL    HW169617   7.148   6.581   2.808
19186SOL    HW269618   7.067   6.542   2.944
19187SOL     OW69619   6.873   5.875   3.269
19187SOL    HW169620   6.958   5.862   3.320
19187SOL    HW269621   6.823   5.788   3.265
19188SOL     OW69622   5.588   5.602   2.376
19188SOL    HW169623   5.558   5.523   2.323
19188SOL    HW269624   5.570   5.686   2.325
19189SOL     OW69625   6.846   5.661   3.619
19189SOL    HW169626   6.883   5.640   3.710
19189SOL    HW269627   6.784   5.739   3.625
19190SOL     OW69628   5.988   7.141   3.477
19190SOL    HW169629   5.927   7.203   3.526
19190SOL    HW269630   6.023   7.186   3.395
19191SOL     OW69631   7.326   7.025   3.390
19191SOL    HW169632   7.359   7.119   3.403
19191SOL    HW269633   7.234   7.016   3.429
19192SOL     OW69634   6.587   6.086   2.929
19192SOL    HW169635   6.671   6.136   2.947
19192SOL    HW269636   6.594   5.994   2.969
19193SOL     OW69637   6.005   7.046   2.510
19193SOL    HW169638   5.994   6.949   2.531
19193SOL    HW269639   5.914   7.088   2.504
19194SOL     OW69640   5.819   7.318   3.609
19194SOL    HW169641   5.839   7.416   3.611
19194SOL    HW269642   5.819   7.282   3.703
19195SOL     OW69643   5.664   6.844   3.528
19195SOL    HW169644   5.669   6.751   3.492
19195SOL    HW269645   5.595   6.896   3.478
19196SOL     OW69646   5.743   7.209   2.879
19196SOL    HW169647   5.716   7.115   2.903
19196SOL    HW269648   5.770   7.212   2.783
19197SOL     OW69649   6.556   5.658   2.662
19197SOL    HW169650   6.615   5.719   2.714
19197SOL    HW269651   6.504   5.600   2.726
19198SOL     OW69652   6.621   6.751   2.243
19198SOL    HW169653   6.711   6.771   2.282
19198SOL    HW269654   6.580   6.673   2.290
19199SOL     OW69655   7.119   6.028   2.640
19199SOL    HW169656   7.111   6.112   2.692
19199SOL    HW269657   7.180   5.964   2.687
19200SOL     OW69658   6.312   6.672   2.094
19200SOL    HW169659   6.385   6.731   2.059
19200SOL    HW269660   6.315   6.584   2.047
19201SOL     OW69661   6.336   5.668   1.972
19201SOL    HW169662   6.418   5.611   1.980
19201SOL    HW269663   6.357   5.762   1.998
19202SOL     OW69664   6.047   6.015   2.556
19202SOL    HW169665   6.116   5.943   2.563
19202SOL    HW269666   6.084   6.091   2.503
19203SOL     OW69667   6.109   6.615   3.290
19203SOL    HW169668   6.203   6.587   3.310
19203SOL    HW269669   6.110   6.698   3.234
19204SOL     OW69670   7.244   6.701   3.144
19204SOL    HW169671   7.267   6.797   3.129
19204SOL    HW269672   7.311   6.643   3.097
19205SOL     OW69673   5.771   6.759   1.917
19205SOL    HW169674   5.733   6.786   1.829
19205SOL    HW269675   5.836   6.829   1.948
19206SOL     OW69676   6.280   7.152   2.077
19206SOL    HW169677   6.231   7.235   2.052
19206SOL    HW269678   6.230   7.103   2.148
19207SOL     OW69679   6.850   6.713   3.304
19207SOL    HW169680   6.800   6.673   3.380
19207SOL    HW269681   6.791   6.780   3.257
19208SOL     OW69682   6.058   7.271   3.238
19208SOL    HW169683   6.123   7.347   3.243
19208SOL    HW269684   5.978   7.300   3.185
19209SOL     OW69685   5.731   6.069   3.566
19209SOL    HW169686   5.717   5.972   3.549
19209SOL    HW269687   5.785   6.081   3.649
19210SOL     OW69688   7.251   7.078   2.831
19210SOL    HW169689   7.290   7.170   2.842
19210SOL    HW269690   7.253   7.030   2.919
19211SOL     OW69691   5.545   6.480   2.543
19211SOL    HW169692   5.578   6.551   2.481
19211SOL    HW269693   5.445   6.475   2.538
19212SOL     OW69694   6.087   6.346   3.376
19212SOL    HW169695   5.998   6.302   3.377
19212SOL    HW269696   6.079   6.439   3.341
19213SOL     OW69697   7.180   6.716   2.697
19213SOL    HW169698   7.167   6.810   2.666
19213SOL    HW269699   7.142   6.653   2.630
19214SOL     OW69700   6.298   6.101   2.860
19214SOL    HW169701   6.396   6.098   2.880
19214SOL    HW269702   6.249   6.141   2.938
19215SOL     OW69703   6.147   6.839   3.131
19215SOL    HW169704   6.051   6.855   3.106
19215SOL    HW269705   6.200   6.821   3.048
19216SOL     OW69706   5.734   6.244   3.013
19216SOL    HW169707   5.732   6.319   3.079
19216SOL    HW269708   5.716   6.279   2.922
19217SOL     OW69709   5.856   6.936   3.350
19217SOL    HW169710   5.911   7.009   3.390
19217SOL    HW269711   5.793   6.899   3.418
19218SOL     OW69712   7.042   7.272   3.654
19218SOL    HW169713   7.042   7.175   3.629
19218SOL    HW269714   7.074   7.327   3.577
19219SOL     OW69715   6.897   6.801   2.306
19219SOL    HW169716   6.992   6.786   2.332
19219SOL    HW269717   6.886   6.784   2.208
19220SOL     OW69718   6.200   5.888   2.298
19220SOL    HW169719   6.102   5.872   2.287
19220SOL    HW269720   6.228   5.865   2.391
19221SOL     OW69721   6.683   6.330   3.252
19221SOL    HW169722   6.781   6.334   3.232
19221SOL    HW269723   6.633   6.381   3.182
19222SOL     OW69724   6.202   6.277   2.664
19222SOL    HW169725   6.230   6.212   2.734
19222SOL    HW269726   6.226   6.242   2.574
19223SOL     OW69727   6.888   7.007   2.873
19223SOL    HW169728   6.856   6.913   2.885
19223SOL    HW269729   6.899   7.027   2.775
19224SOL     OW69730   6.850   5.996   2.589
19224SOL    HW169731   6.841   5.987   2.490
19224SOL    HW269732   6.946   6.006   2.613
19225SOL     OW69733   6.623   7.022   4.438
19225SOL    HW169734   6.716   7.055   4.448
19225SOL    HW269735   6.592   7.035   4.344
19226SOL     OW69736   7.167   6.812   4.254
19226SOL    HW169737   7.174   6.881   4.326
19226SOL    HW269738   7.259   6.783   4.227
19227SOL     OW69739   7.141   6.214   5.067
19227SOL    HW169740   7.079   6.160   5.124
19227SOL    HW269741   7.204   6.265   5.125
19228SOL     OW69742   5.900   5.738   3.673
19228SOL    HW169743   5.820   5.754   3.615
19228SOL    HW269744   5.966   5.812   3.660
19229SOL     OW69745   6.884   7.093   4.505
19229SOL    HW169746   6.895   7.190   4.526
19229SOL    HW269747   6.974   7.053   4.485
19230SOL     OW69748   6.822   5.585   5.016
19230SOL    HW169749   6.807   5.525   5.094
19230SOL    HW269750   6.843   5.529   4.935
19231SOL     OW69751   6.526   6.428   5.414
19231SOL    HW169752   6.482   6.449   5.327
19231SOL    HW269753   6.459   6.435   5.488
19232SOL     OW69754   6.099   7.029   4.084
19232SOL    HW169755   6.051   7.051   4.169
19232SOL    HW269756   6.175   6.966   4.104
19233SOL     OW69757   6.087   5.592   3.829
19233SOL    HW169758   6.173   5.639   3.848
19233SOL    HW269759   6.028   5.649   3.772
19234SOL     OW69760   7.140   6.586   5.218
19234SOL    HW169761   7.043   6.607   5.206
19234SOL    HW269762   7.189   6.608   5.134
19235SOL     OW69763   6.928   6.589   4.911
19235SOL    HW169764   6.897   6.592   5.006
19235SOL    HW269765   6.986   6.668   4.892
19236SOL     OW69766   6.540   6.945   5.065
19236SOL    HW169767   6.451   6.991   5.074
19236SOL    HW269768   6.524   6.849   5.041
19237SOL     OW69769   6.013   6.776   4.359
19237SOL    HW169770   5.965   6.732   4.435
19237SOL    HW269771   6.109   6.750   4.361
19238SOL     OW69772   6.281   6.167   4.312
19238SOL    HW169773   6.305   6.241   4.250
19238SOL    HW269774   6.240   6.092   4.260
19239SOL     OW69775   6.850   6.046   5.469
19239SOL    HW169776   6.949   6.045   5.479
19239SOL    HW269777   6.811   5.966   5.514
19240SOL     OW69778   5.968   6.923   3.860
19240SOL    HW169779   6.020   6.934   3.776
19240SOL    HW269780   6.015   6.970   3.935
19241SOL     OW69781   5.873   6.290   4.195
19241SOL    HW169782   5.901   6.323   4.285
19241SOL    HW269783   5.777   6.262   4.198
19242SOL     OW69784   6.359   7.246   4.310
19242SOL    HW169785   6.413   7.170   4.274
19242SOL    HW269786   6.361   7.323   4.246
19243SOL     OW69787   7.363   7.169   4.097
19243SOL    HW169788   7.431   7.099   4.121
19243SOL    HW269789   7.291   7.127   4.041
19244SOL     OW69790   7.205   5.865   4.792
19244SOL    HW169791   7.239   5.956   4.816
19244SOL    HW269792   7.105   5.869   4.781
19245SOL     OW69793   6.600   5.925   4.209
19245SOL    HW169794   6.550   5.959   4.288
19245SOL    HW269795   6.638   5.834   4.230
19246SOL     OW69796   6.058   6.218   3.716
19246SOL    HW169797   6.030   6.314   3.721
19246SOL    HW269798   6.137   6.209   3.656
19247SOL     OW69799   6.163   7.189   4.489
19247SOL    HW169800   6.233   7.224   4.426
19247SOL    HW269801   6.098   7.133   4.438
19248SOL     OW69802   6.493   6.135   5.237
19248SOL    HW169803   6.517   6.054   5.291
19248SOL    HW269804   6.576   6.171   5.194
19249SOL     OW69805   7.148   6.980   4.495
19249SOL    HW169806   7.170   7.009   4.589
19249SOL    HW269807   7.176   7.052   4.431
19250SOL     OW69808   5.822   6.806   4.155
19250SOL    HW169809   5.892   6.794   4.225
19250SOL    HW269810   5.841   6.746   4.078
19251SOL     OW69811   6.725   5.863   3.928
19251SOL    HW169812   6.823   5.875   3.948
19251SOL    HW269813   6.671   5.896   4.006
19252SOL     OW69814   6.927   6.307   4.917
19252SOL    HW169815   6.929   6.407   4.908
19252SOL    HW269816   7.009   6.276   4.965
19253SOL     OW69817   5.961   5.828   4.129
19253SOL    HW169818   5.905   5.861   4.205
19253SOL    HW269819   5.925   5.740   4.097
19254SOL     OW69820   7.096   7.280   5.016
19254SOL    HW169821   7.019   7.289   4.953
19254SOL    HW269822   7.181   7.274   4.964
19255SOL     OW69823   7.288   6.116   4.859
19255SOL    HW169824   7.381   6.149   4.869
19255SOL    HW269825   7.232   6.149   4.935
19256SOL     OW69826   7.347   7.272   4.880
19256SOL    HW169827   7.383   7.318   4.962
19256SOL    HW269828   7.422   7.253   4.817
19257SOL     OW69829   6.461   6.001   4.435
19257SOL    HW169830   6.490   6.023   4.529
19257SOL    HW269831   6.398   6.071   4.402
19258SOL     OW69832   6.824   6.457   3.963
19258SOL    HW169833   6.772   6.541   3.976
19258SOL    HW269834   6.774   6.395   3.903
19259SOL     OW69835   6.539   5.910   5.397
19259SOL    HW169836   6.593   5.892   5.479
19259SOL    HW269837   6.456   5.853   5.398
19260SOL     OW69838   7.269   6.242   4.066
19260SOL    HW169839   7.232   6.149   4.074
19260SOL    HW269840   7.336   6.257   4.138
19261SOL     OW69841   6.546   7.349   3.904
19261SOL    HW169842   6.602   7.267   3.919
19261SOL    HW269843   6.500   7.373   3.989
19262SOL     OW69844   6.342   5.617   5.393
19262SOL    HW169845   6.361   5.520   5.378
19262SOL    HW269846   6.339   5.636   5.491
19263SOL     OW69847   7.242   6.215   4.608
19263SOL    HW169848   7.216   6.310   4.616
19263SOL    HW269849   7.250   6.174   4.699
19264SOL     OW69850   6.649   6.871   5.446
19264SOL    HW169851   6.693   6.782   5.435
19264SOL    HW269852   6.593   6.891   5.366
19265SOL     OW69853   6.342   6.716   5.421
19265SOL    HW169854   6.325   6.813   5.441
19265SOL    HW269855   6.379   6.672   5.503
19266SOL     OW69856   6.952   5.567   4.557
19266SOL    HW169857   6.903   5.654   4.548
19266SOL    HW269858   7.040   5.574   4.511
19267SOL     OW69859   7.282   5.741   5.453
19267SOL    HW169860   7.250   5.773   5.542
19267SOL    HW269861   7.266   5.642   5.446
19268SOL     OW69862   5.610   6.223   4.256
19268SOL    HW169863   5.620   6.156   4.329
19268SOL    HW269864   5.576   6.309   4.293
19269SOL     OW69865   6.573   6.455   4.651
19269SOL    HW169866   6.631   6.536   4.662
19269SOL    HW269867   6.623   6.385   4.599
19270SOL     OW69868   5.731   7.059   4.070
19270SOL    HW169869   5.758   6.967   4.096
19270SOL    HW269870   5.784   7.089   3.991
19271SOL     OW69871   7.005   6.867   4.916
19271SOL    HW169872   6.962   6.898   4.832
19271SOL    HW269873   6.941   6.880   4.993
19272SOL     OW69874   5.726   7.151   4.341
19272SOL    HW169875   5.629   7.151   4.366
19272SOL    HW269876   5.734   7.149   4.242
19273SOL     OW69877   7.272   6.909   4.967
19273SOL    HW169878   7.294   6.947   5.056
19273SOL    HW269879   7.173   6.897   4.960
19274SOL     OW69880   6.033   6.493   3.728
19274SOL    HW169881   6.012   6.548   3.647
19274SOL    HW269882   6.010   6.544   3.810
19275SOL     OW69883   6.487   6.685   4.986
19275SOL    HW169884   6.535   6.598   4.972
19275SOL    HW269885   6.434   6.707   4.904
19276SOL     OW69886   5.643   6.325   3.890
19276SOL    HW169887   5.719   6.261   3.897
19276SOL    HW269888   5.563   6.287   3.936
19277SOL     OW69889   7.056   6.437   4.110
19277SOL    HW169890   7.127   6.375   4.077
19277SOL    HW269891   6.977   6.433   4.049
19278SOL     OW69892   6.490   7.284   4.758
19278SOL    HW169893   6.468   7.206   4.698
19278SOL    HW269894   6.405   7.324   4.793
19279SOL     OW69895   6.305   6.451   3.774
19279SOL    HW169896   6.335   6.365   3.815
19279SOL    HW269897   6.207   6.447   3.755
19280SOL     OW69898   6.976   5.916   4.053
19280SOL    HW169899   6.909   5.987   4.074
19280SOL    HW269900   7.063   5.938   4.097
19281SOL     OW69901   5.841   6.100   5.258
19281SOL    HW169902   5.847   6.188   5.209
19281SOL    HW269903   5.790   6.112   5.342
19282SOL     OW69904   6.552   6.424   4.923
19282SOL    HW169905   6.554   6.424   4.823
19282SOL    HW269906   6.470   6.376   4.955
19283SOL     OW69907   7.210   5.984   4.162
19283SOL    HW169908   7.293   5.928   4.151
19283SOL    HW269909   7.194   6.002   4.259
19284SOL     OW69910   6.410   7.081   4.602
19284SOL    HW169911   6.483   7.060   4.537
19284SOL    HW269912   6.325   7.099   4.553
19285SOL     OW69913   6.412   5.944   3.999
19285SOL    HW169914   6.323   5.950   4.043
19285SOL    HW269915   6.484   5.940   4.068
19286SOL     OW69916   6.523   6.836   3.855
19286SOL    HW169917   6.585   6.793   3.920
19286SOL    HW269918   6.568   6.844   3.766
19287SOL     OW69919   7.211   7.177   4.330
19287SOL    HW169920   7.184   7.269   4.359
19287SOL    HW269921   7.262   7.182   4.245
19288SOL     OW69922   6.379   7.146   5.311
19288SOL    HW169923   6.333   7.107   5.232
19288SOL    HW269924   6.369   7.084   5.389
19289SOL     OW69925   6.922   6.480   4.562
19289SOL    HW169926   7.005   6.470   4.617
19289SOL    HW269927   6.871   6.560   4.594
19290SOL     OW69928   5.878   6.665   4.572
19290SOL    HW169929   5.779   6.662   4.576
19290SOL    HW269930   5.914   6.709   4.655
19291SOL     OW69931   6.491   6.571   4.199
19291SOL    HW169932   6.441   6.490   4.167
19291SOL    HW269933   6.438   6.617   4.270
19292SOL     OW69934   6.814   6.911   5.111
19292SOL    HW169935   6.857   6.994   5.148
19292SOL    HW269936   6.716   6.928   5.099
19293SOL     OW69937   5.617   5.908   4.114
19293SOL    HW169938   5.664   5.908   4.025
19293SOL    HW269939   5.684   5.908   4.188
19294SOL     OW69940   6.349   6.301   5.064
19294SOL    HW169941   6.343   6.387   5.114
19294SOL    HW269942   6.399   6.234   5.119
19295SOL     OW69943   5.607   7.374   5.122
19295SOL    HW169944   5.560   7.460   5.100
19295SOL    HW269945   5.609   7.362   5.221
19296SOL     OW69946   6.334   6.356   4.118
19296SOL    HW169947   6.240   6.383   4.098
19296SOL    HW269948   6.373   6.310   4.039
19297SOL     OW69949   5.849   7.295   3.886
19297SOL    HW169950   5.938   7.334   3.862
19297SOL    HW269951   5.830   7.312   3.983
19298SOL     OW69952   6.879   7.288   4.848
19298SOL    HW169953   6.900   7.307   4.752
19298SOL    HW269954   6.810   7.215   4.853
19299SOL     OW69955   5.606   6.655   4.635
19299SOL    HW169956   5.518   6.673   4.591
19299SOL    HW269957   5.603   6.566   4.680
19300SOL     OW69958   6.323   5.585   4.139
19300SOL    HW169959   6.312   5.613   4.044
19300SOL    HW269960   6.309   5.664   4.199
19301SOL     OW69961   5.559   6.692   4.199
19301SOL    HW169962   5.638   6.752   4.213
19301SOL    HW269963   5.563   6.654   4.106
19302SOL     OW69964   7.138   5.838   5.232
19302SOL    HW169965   7.093   5.927   5.242
19302SOL    HW269966   7.191   5.818   5.315
19303SOL     OW69967   6.835   5.817   4.529
19303SOL    HW169968   6.842   5.898   4.471
19303SOL    HW269969   6.863   5.840   4.622
19304SOL     OW69970   6.973   5.602   3.856
19304SOL    HW169971   7.030   5.520   3.859
19304SOL    HW269972   6.926   5.613   3.944
19305SOL     OW69973   7.136   5.551   5.240
19305SOL    HW169974   7.131   5.507   5.150
19305SOL    HW269975   7.120   5.649   5.230
19306SOL     OW69976   6.336   5.771   4.349
19306SOL    HW169977   6.361   5.687   4.398
19306SOL    HW269978   6.384   5.849   4.389
19307SOL     OW69979   6.791   6.144   4.742
19307SOL    HW169980   6.782   6.192   4.655
19307SOL    HW269981   6.836   6.203   4.809
19308SOL     OW69982   7.164   5.569   4.137
19308SOL    HW169983   7.185   5.526   4.049
19308SOL    HW269984   7.069   5.599   4.137
19309SOL     OW69985   5.650   6.903   4.764
19309SOL    HW169986   5.636   6.823   4.707
19309SOL    HW269987   5.570   6.918   4.823
19310SOL     OW69988   7.334   6.158   5.405
19310SOL    HW169989   7.321   6.233   5.340
19310SOL    HW269990   7.431   6.138   5.415
19311SOL     OW69991   6.926   5.907   4.777
19311SOL    HW169992   6.881   5.995   4.764
19311SOL    HW269993   6.918   5.879   4.873
19312SOL     OW69994   7.117   6.020   5.497
19312SOL    HW169995   7.196   6.070   5.463
19312SOL    HW269996   7.145   5.957   5.570
19313SOL     OW69997   7.123   6.500   4.368
19313SOL    HW169998   7.101   6.485   4.271
19313SOL    HW269999   7.039   6.491   4.422
19314SOL     OW70000   7.310   6.368   5.220
19314SOL    HW170001   7.244   6.443   5.220
19314SOL    HW270002   7.403   6.405   5.226
19315SOL     OW70003   7.128   5.826   3.827
19315SOL    HW170004   7.110   5.878   3.911
19315SOL    HW270005   7.074   5.742   3.828
19316SOL     OW70006   6.272   7.052   5.073
19316SOL    HW170007   6.217   7.133   5.049
19316SOL    HW270008   6.241   6.974   5.020
19317SOL     OW70009   5.649   5.849   5.407
19317SOL    HW170010   5.657   5.869   5.309
19317SOL    HW270011   5.559   5.812   5.427
19318SOL     OW70012   5.584   7.344   5.405
19318SOL    HW170013   5.642   7.336   5.486
19318SOL    HW270014   5.514   7.273   5.407
19319SOL     OW70015   5.784   5.875   4.331
19319SOL    HW170016   5.749   5.944   4.396
19319SOL    HW270017   5.790   5.786   4.377
19320SOL     OW70018   6.947   7.130   5.201
19320SOL    HW170019   6.879   7.191   5.241
19320SOL    HW270020   7.002   7.182   5.135
19321SOL     OW70021   5.868   6.153   3.917
19321SOL    HW170022   5.942   6.174   3.853
19321SOL    HW270023   5.894   6.182   4.009
19322SOL     OW70024   7.321   5.766   5.034
19322SOL    HW170025   7.256   5.798   5.103
19322SOL    HW270026   7.286   5.784   4.943
19323SOL     OW70027   5.857   7.313   4.529
19323SOL    HW170028   5.806   7.268   4.455
19323SOL    HW270029   5.954   7.292   4.520
19324SOL     OW70030   5.907   6.819   4.822
19324SOL    HW170031   5.910   6.807   4.921
19324SOL    HW270032   5.820   6.861   4.797
19325SOL     OW70033   6.695   7.134   5.534
19325SOL    HW170034   6.679   7.038   5.510
19325SOL    HW270035   6.717   7.186   5.451
19326SOL     OW70036   6.301   6.849   4.148
19326SOL    HW170037   6.305   6.785   4.072
19326SOL    HW270038   6.308   6.799   4.234
19327SOL     OW70039   5.924   6.394   4.461
19327SOL    HW170040   5.923   6.490   4.492
19327SOL    HW270041   6.009   6.350   4.490
19328SOL     OW70042   5.763   5.895   3.877
19328SOL    HW170043   5.827   5.842   3.820
19328SOL    HW270044   5.802   5.985   3.895
19329SOL     OW70045   5.664   6.060   4.493
19329SOL    HW170046   5.683   6.153   4.523
19329SOL    HW270047   5.596   6.019   4.554
19330SOL     OW70048   6.030   6.670   3.947
19330SOL    HW170049   6.130   6.676   3.947
19330SOL    HW270050   5.991   6.755   3.914
19331SOL     OW70051   6.681   6.298   3.785
19331SOL    HW170052   6.636   6.360   3.721
19331SOL    HW270053   6.733   6.229   3.733
19332SOL     OW70054   6.435   6.225   3.898
19332SOL    HW170055   6.528   6.245   3.867
19332SOL    HW270056   6.425   6.127   3.913
19333SOL     OW70057   6.908   5.660   4.120
19333SOL    HW170058   6.829   5.656   4.182
19333SOL    HW270059   6.930   5.756   4.101
19334SOL     OW70060   6.961   6.060   5.205
19334SOL    HW170061   6.907   6.075   5.288
19334SOL    HW270062   6.912   5.999   5.144
19335SOL     OW70063   5.623   5.649   3.848
19335SOL    HW170064   5.699   5.584   3.857
19335SOL    HW270065   5.656   5.742   3.865
19336SOL     OW70066   6.378   6.546   5.204
19336SOL    HW170067   6.413   6.601   5.128
19336SOL    HW270068   6.351   6.606   5.279
19337SOL     OW70069   6.729   6.611   5.398
19337SOL    HW170070   6.652   6.546   5.401
19337SOL    HW270071   6.810   6.567   5.435
19338SOL     OW70072   6.700   5.685   4.299
19338SOL    HW170073   6.731   5.702   4.393
19338SOL    HW270074   6.641   5.604   4.299
19339SOL     OW70075   6.753   7.284   5.313
19339SOL    HW170076   6.676   7.309   5.254
19339SOL    HW270077   6.793   7.367   5.353
19340SOL     OW70078   5.838   7.352   4.960
19340SOL    HW170079   5.806   7.296   4.884
19340SOL    HW270080   5.766   7.359   5.029
19341SOL     OW70081   6.545   6.787   4.546
19341SOL    HW170082   6.576   6.874   4.508
19341SOL    HW270083   6.623   6.739   4.587
19342SOL     OW70084   6.310   6.509   4.579
19342SOL    HW170085   6.252   6.428   4.566
19342SOL    HW270086   6.403   6.480   4.602
19343SOL     OW70087   5.809   5.589   4.129
19343SOL    HW170088   5.855   5.564   4.214
19343SOL    HW270089   5.713   5.608   4.148
19344SOL     OW70090   6.239   6.201   5.335
19344SOL    HW170091   6.202   6.233   5.248
19344SOL    HW270092   6.334   6.174   5.324
19345SOL     OW70093   5.612   6.601   3.946
19345SOL    HW170094   5.639   6.508   3.921
19345SOL    HW270095   5.657   6.666   3.885
19346SOL     OW70096   7.293   5.805   4.535
19346SOL    HW170097   7.266   5.814   4.631
19346SOL    HW270098   7.392   5.815   4.527
19347SOL     OW70099   6.358   6.727   4.745
19347SOL    HW170100   6.322   6.646   4.698
19347SOL    HW270101   6.419   6.777   4.685
19348SOL     OW70102   7.104   6.996   5.379
19348SOL    HW170103   7.064   6.913   5.419
19348SOL    HW270104   7.038   7.037   5.316
19349SOL     OW70105   6.312   7.016   3.783
19349SOL    HW170106   6.302   7.096   3.841
19349SOL    HW270107   6.391   6.962   3.813
19350SOL     OW70108   6.204   7.318   4.734
19350SOL    HW170109   6.184   7.257   4.656
19350SOL    HW270110   6.163   7.280   4.817
19351SOL     OW70111   6.328   6.707   4.390
19351SOL    HW170112   6.403   6.756   4.434
19351SOL    HW270113   6.302   6.629   4.446
19352SOL     OW70114   6.503   7.042   4.192
19352SOL    HW170115   6.569   7.058   4.118
19352SOL    HW270116   6.437   6.973   4.163
19353SOL     OW70117   5.666   6.333   4.542
19353SOL    HW170118   5.763   6.351   4.523
19353SOL    HW270119   5.610   6.390   4.482
19354SOL     OW70120   5.615   6.506   5.540
19354SOL    HW170121   5.568   6.482   5.455
19354SOL    HW270122   5.626   6.423   5.596
19355SOL     OW70123   6.526   7.327   5.156
19355SOL    HW170124   6.484   7.255   5.211
19355SOL    HW270125   6.455   7.386   5.118
19356SOL     OW70126   6.762   6.668   4.700
19356SOL    HW170127   6.778   6.766   4.702
19356SOL    HW270128   6.803   6.625   4.781
19357SOL     OW70129   6.071   5.936   5.478
19357SOL    HW170130   6.142   5.920   5.409
19357SOL    HW270131   6.071   6.033   5.503
19358SOL     OW70132   6.077   6.422   4.066
19358SOL    HW170133   6.046   6.510   4.031
19358SOL    HW270134   6.000   6.374   4.109
19359SOL     OW70135   7.166   6.482   4.693
19359SOL    HW170136   7.190   6.564   4.642
19359SOL    HW270137   7.179   6.497   4.791
19360SOL     OW70138   6.922   5.833   5.042
19360SOL    HW170139   7.002   5.822   5.102
19360SOL    HW270140   6.876   5.745   5.032
19361SOL     OW70141   5.558   5.655   4.196
19361SOL    HW170142   5.466   5.621   4.177
19361SOL    HW270143   5.566   5.749   4.164
19362SOL     OW70144   6.742   5.685   5.367
19362SOL    HW170145   6.746   5.727   5.458
19362SOL    HW270146   6.687   5.743   5.307
19363SOL     OW70147   7.331   7.002   5.223
19363SOL    HW170148   7.379   7.087   5.242
19363SOL    HW270149   7.249   6.997   5.280
19364SOL     OW70150   6.535   6.042   4.705
19364SOL    HW170151   6.625   6.084   4.721
19364SOL    HW270152   6.534   5.950   4.745
19365SOL     OW70153   5.983   7.048   4.341
19365SOL    HW170154   5.987   6.949   4.351
19365SOL    HW270155   5.887   7.077   4.345
19366SOL     OW70156   6.668   7.110   4.876
19366SOL    HW170157   6.623   7.056   4.947
19366SOL    HW270158   6.603   7.176   4.838
19367SOL     OW70159   5.720   7.194   4.754
19367SOL    HW170160   5.708   7.096   4.741
19367SOL    HW270161   5.763   7.234   4.673
19368SOL     OW70162   6.680   6.694   4.039
19368SOL    HW170163   6.766   6.711   4.087
19368SOL    HW270164   6.614   6.651   4.101
19369SOL     OW70165   7.155   6.021   4.429
19369SOL    HW170166   7.182   6.099   4.487
19369SOL    HW270167   7.198   5.938   4.464
19370SOL     OW70168   6.305   6.685   3.923
19370SOL    HW170169   6.381   6.743   3.894
19370SOL    HW270170   6.316   6.593   3.885
19371SOL     OW70171   6.351   5.683   3.873
19371SOL    HW170172   6.428   5.619   3.870
19371SOL    HW270173   6.384   5.773   3.902
19372SOL     OW70174   7.273   6.632   4.981
19372SOL    HW170175   7.279   6.731   4.973
19372SOL    HW270176   7.347   6.590   4.927
19373SOL     OW70177   5.735   6.791   3.793
19373SOL    HW170178   5.705   6.811   3.700
19373SOL    HW270179   5.814   6.848   3.816
19374SOL     OW70180   6.220   7.231   3.944
19374SOL    HW170181   6.156   7.288   3.891
19374SOL    HW270182   6.168   7.164   3.996
19375SOL     OW70183   6.876   6.654   5.171
19375SOL    HW170184   6.820   6.624   5.248
19375SOL    HW270185   6.855   6.750   5.150
19376SOL     OW70186   6.111   7.269   4.994
19376SOL    HW170187   6.164   7.348   5.025
19376SOL    HW270188   6.014   7.293   4.993
19377SOL     OW70189   5.680   6.114   5.481
19377SOL    HW170190   5.675   6.014   5.477
19377SOL    HW270191   5.712   6.142   5.571
19378SOL     OW70192   7.212   7.067   4.743
19378SOL    HW170193   7.244   7.158   4.772
19378SOL    HW270194   7.228   7.001   4.816
19379SOL     OW70195   5.516   6.464   4.354
19379SOL    HW170196   5.543   6.545   4.302
19379SOL    HW270197   5.417   6.464   4.367
19380SOL     OW70198   7.206   6.710   4.540
19380SOL    HW170199   7.177   6.805   4.529
19380SOL    HW270200   7.179   6.658   4.458
19381SOL     OW70201   6.307   6.196   4.761
19381SOL    HW170202   6.390   6.143   4.743
19381SOL    HW270203   6.305   6.223   4.857
19382SOL     OW70204   6.176   6.860   4.902
19382SOL    HW170205   6.087   6.856   4.856
19382SOL    HW270206   6.245   6.815   4.845
19383SOL     OW70207   7.206   7.238   5.470
19383SOL    HW170208   7.170   7.146   5.454
19383SOL    HW270209   7.176   7.299   5.397
19384SOL     OW70210   6.934   6.701   4.155
19384SOL    HW170211   7.010   6.755   4.188
19384SOL    HW270212   6.967   6.612   4.124
19385SOL     OW70213   6.202   5.939   4.177
19385SOL    HW170214   6.111   5.907   4.149
19385SOL    HW270215   6.241   5.874   4.243
19386SOL     OW70216   7.182   5.584   4.411
19386SOL    HW170217   7.178   5.596   4.311
19386SOL    HW270218   7.229   5.663   4.452
19387SOL     OW70219   6.694   6.252   5.088
19387SOL    HW170220   6.790   6.247   5.062
19387SOL    HW270221   6.648   6.321   5.033
19388SOL     OW70222   6.166   6.278   4.536
19388SOL    HW170223   6.205   6.238   4.618
19388SOL    HW270224   6.203   6.232   4.455
19389SOL     OW70225   6.815   6.936   4.719
19389SOL    HW170226   6.756   6.992   4.778
19389SOL    HW270227   6.839   6.987   4.637
19390SOL     OW70228   6.613   7.013   6.301
19390SOL    HW170229   6.707   7.044   6.293
19390SOL    HW270230   6.566   7.027   6.214
19391SOL     OW70231   7.126   6.827   6.091
19391SOL    HW170232   7.136   6.888   6.170
19391SOL    HW270233   7.217   6.800   6.059
19392SOL     OW70234   7.152   6.174   6.918
19392SOL    HW170235   7.086   6.119   6.969
19392SOL    HW270236   7.180   6.253   6.973
19393SOL     OW70237   5.882   5.748   5.504
19393SOL    HW170238   5.797   5.781   5.462
19393SOL    HW270239   5.955   5.815   5.488
19394SOL     OW70240   6.882   7.107   6.336
19394SOL    HW170241   6.893   7.202   6.363
19394SOL    HW270242   6.971   7.068   6.314
19395SOL     OW70243   6.752   5.565   6.834
19395SOL    HW170244   6.673   5.520   6.877
19395SOL    HW270245   6.800   5.500   6.776
19396SOL     OW70246   6.496   6.429   7.284
19396SOL    HW170247   6.457   6.443   7.193
19396SOL    HW270248   6.425   6.443   7.353
19397SOL     OW70249   6.068   5.594   5.655
19397SOL    HW170250   6.162   5.627   5.654
19397SOL    HW270251   6.014   5.646   5.588
19398SOL     OW70252   7.107   6.683   7.141
19398SOL    HW170253   7.018   6.674   7.097
19398SOL    HW270254   7.179   6.685   7.072
19399SOL     OW70255   6.962   6.589   6.755
19399SOL    HW170256   6.923   6.593   6.847
19399SOL    HW270257   7.000   6.678   6.731
19400SOL     OW70258   6.545   6.866   7.013
19400SOL    HW170259   6.460   6.919   7.009
19400SOL    HW270260   6.536   6.784   6.957
19401SOL     OW70261   6.012   6.758   6.287
19401SOL    HW170262   5.971   6.689   6.348
19401SOL    HW270263   6.108   6.735   6.272
19402SOL     OW70264   6.297   6.145   6.110
19402SOL    HW170265   6.313   6.223   6.049
19402SOL    HW270266   6.269   6.066   6.056
19403SOL     OW70267   6.814   6.084   7.283
19403SOL    HW170268   6.898   6.055   7.328
19403SOL    HW270269   6.746   6.012   7.291
19404SOL     OW70270   6.094   5.850   6.551
19404SOL    HW170271   6.150   5.933   6.542
19404SOL    HW270272   6.148   5.770   6.526
19405SOL     OW70273   5.853   6.306   6.014
19405SOL    HW170274   5.898   6.324   6.101
19405SOL    HW270275   5.755   6.293   6.029
19406SOL     OW70276   6.275   7.238   6.152
19406SOL    HW170277   6.341   7.168   6.126
19406SOL    HW270278   6.268   7.306   6.079
19407SOL     OW70279   7.314   7.161   5.942
19407SOL    HW170280   7.407   7.127   5.931
19407SOL    HW270281   7.288   7.212   5.860
19408SOL     OW70282   7.177   5.865   6.619
19408SOL    HW170283   7.216   5.954   6.643
19408SOL    HW270284   7.078   5.868   6.632
19409SOL     OW70285   6.631   5.893   5.852
19409SOL    HW170286   6.682   5.979   5.861
19409SOL    HW270287   6.639   5.841   5.937
19410SOL     OW70288   5.708   6.540   7.138
19410SOL    HW170289   5.801   6.565   7.164
19410SOL    HW270290   5.659   6.505   7.218
19411SOL     OW70291   6.069   6.218   5.548
19411SOL    HW170292   6.072   6.309   5.588
19411SOL    HW270293   6.133   6.213   5.471
19412SOL     OW70294   6.222   7.142   6.409
19412SOL    HW170295   6.252   7.181   6.322
19412SOL    HW270296   6.135   7.094   6.396
19413SOL     OW70297   6.508   6.132   7.100
19413SOL    HW170298   6.546   6.062   7.160
19413SOL    HW270299   6.582   6.183   7.057
19414SOL     OW70300   7.148   6.988   6.327
19414SOL    HW170301   7.155   7.005   6.425
19414SOL    HW270302   7.208   7.051   6.278
19415SOL     OW70303   5.803   6.847   6.125
19415SOL    HW170304   5.873   6.804   6.181
19415SOL    HW270305   5.845   6.912   6.062
19416SOL     OW70306   6.746   5.825   5.609
19416SOL    HW170307   6.825   5.770   5.637
19416SOL    HW270308   6.690   5.846   5.690
19417SOL     OW70309   5.937   6.104   6.717
19417SOL    HW170310   5.923   6.009   6.744
19417SOL    HW270311   5.850   6.154   6.723
19418SOL     OW70312   6.935   6.316   6.819
19418SOL    HW170313   6.951   6.411   6.794
19418SOL    HW270314   7.022   6.274   6.848
19419SOL     OW70315   5.957   5.909   5.963
19419SOL    HW170316   5.899   5.915   6.044
19419SOL    HW270317   5.907   5.865   5.889
19420SOL     OW70318   7.083   7.281   6.857
19420SOL    HW170319   7.006   7.301   6.796
19420SOL    HW270320   7.165   7.265   6.803
19421SOL     OW70321   7.302   6.090   6.711
19421SOL    HW170322   7.380   6.042   6.752
19421SOL    HW270323   7.245   6.128   6.784
19422SOL     OW70324   7.330   7.250   6.721
19422SOL    HW170325   7.362   7.292   6.806
19422SOL    HW270326   7.408   7.229   6.662
19423SOL     OW70327   6.508   5.988   6.199
19423SOL    HW170328   6.571   6.033   6.262
19423SOL    HW270329   6.439   6.053   6.167
19424SOL     OW70330   6.794   6.499   5.678
19424SOL    HW170331   6.812   6.457   5.767
19424SOL    HW270332   6.750   6.433   5.618
19425SOL     OW70333   6.586   5.915   7.281
19425SOL    HW170334   6.631   5.867   7.357
19425SOL    HW270335   6.489   5.891   7.279
19426SOL     OW70336   7.279   6.244   5.896
19426SOL    HW170337   7.234   6.156   5.914
19426SOL    HW270338   7.345   6.263   5.969
19427SOL     OW70339   6.525   7.318   5.674
19427SOL    HW170340   6.572   7.258   5.610
19427SOL    HW270341   6.532   7.280   5.766
19428SOL     OW70342   6.330   5.597   7.258
19428SOL    HW170343   6.347   5.503   7.231
19428SOL    HW270344   6.330   5.604   7.357
19429SOL     OW70345   7.254   6.221   6.474
19429SOL    HW170346   7.215   6.312   6.491
19429SOL    HW270347   7.272   6.176   6.562
19430SOL     OW70348   6.635   6.874   7.286
19430SOL    HW170349   6.715   6.814   7.293
19430SOL    HW270350   6.592   6.863   7.196
19431SOL     OW70351   6.278   6.684   7.260
19431SOL    HW170352   6.230   6.770   7.273
19431SOL    HW270353   6.284   6.635   7.348
19432SOL     OW70354   6.948   5.502   6.421
19432SOL    HW170355   6.898   5.588   6.431
19432SOL    HW270356   7.032   5.519   6.369
19433SOL     OW70357   7.246   5.738   7.323
19433SOL    HW170358   7.207   5.765   7.411
19433SOL    HW270359   7.239   5.639   7.312
19434SOL     OW70360   5.597   6.272   6.115
19434SOL    HW170361   5.623   6.204   6.184
19434SOL    HW270362   5.563   6.354   6.160
19435SOL     OW70363   5.885   5.712   6.327
19435SOL    HW170364   5.948   5.755   6.392
19435SOL    HW270365   5.883   5.613   6.342
19436SOL     OW70366   5.915   5.817   6.760
19436SOL    HW170367   5.906   5.719   6.781
19436SOL    HW270368   5.978   5.828   6.683
19437SOL     OW70369   6.595   6.322   6.460
19437SOL    HW170370   6.500   6.327   6.427
19437SOL    HW270371   6.636   6.237   6.428
19438SOL     OW70372   6.999   6.867   6.761
19438SOL    HW170373   6.963   6.907   6.676
19438SOL    HW270374   6.933   6.881   6.835
19439SOL     OW70375   5.842   7.188   6.160
19439SOL    HW170376   5.750   7.163   6.190
19439SOL    HW270377   5.837   7.242   6.077
19440SOL     OW70378   7.262   6.895   6.819
19440SOL    HW170379   7.279   6.942   6.906
19440SOL    HW270380   7.163   6.886   6.805
19441SOL     OW70381   6.085   6.523   5.662
19441SOL    HW170382   6.010   6.565   5.611
19441SOL    HW270383   6.140   6.595   5.705
19442SOL     OW70384   6.505   6.647   6.845
19442SOL    HW170385   6.552   6.564   6.815
19442SOL    HW270386   6.447   6.680   6.771
19443SOL     OW70387   5.639   6.296   5.717
19443SOL    HW170388   5.725   6.258   5.749
19443SOL    HW270389   5.565   6.268   5.778
19444SOL     OW70390   7.111   6.459   5.952
19444SOL    HW170391   7.170   6.381   5.936
19444SOL    HW270392   7.131   6.531   5.885
19445SOL     OW70393   6.439   7.377   6.579
19445SOL    HW170394   6.458   7.282   6.554
19445SOL    HW270395   6.431   7.385   6.678
19446SOL     OW70396   6.346   6.439   5.615
19446SOL    HW170397   6.368   6.348   5.652
19446SOL    HW270398   6.247   6.453   5.618
19447SOL     OW70399   6.927   5.966   5.974
19447SOL    HW170400   6.881   6.030   5.913
19447SOL    HW270401   7.025   5.987   5.976
19448SOL     OW70402   5.822   6.154   7.040
19448SOL    HW170403   5.791   6.067   7.001
19448SOL    HW270404   5.799   6.157   7.137
19449SOL     OW70405   5.730   5.901   6.953
19449SOL    HW170406   5.799   5.869   6.887
19449SOL    HW270407   5.640   5.867   6.927
19450SOL     OW70408   6.565   6.396   6.736
19450SOL    HW170409   6.578   6.374   6.639
19450SOL    HW270410   6.482   6.351   6.770
19451SOL     OW70411   7.197   6.000   6.004
19451SOL    HW170412   7.286   5.958   5.986
19451SOL    HW270413   7.186   6.015   6.102
19452SOL     OW70414   6.474   7.114   6.511
19452SOL    HW170415   6.530   7.079   6.437
19452SOL    HW270416   6.377   7.111   6.484
19453SOL     OW70417   6.374   5.933   5.780
19453SOL    HW170418   6.313   5.920   5.858
19453SOL    HW270419   6.468   5.914   5.807
19454SOL     OW70420   6.504   6.831   5.685
19454SOL    HW170421   6.548   6.810   5.772
19454SOL    HW270422   6.574   6.838   5.614
19455SOL     OW70423   7.302   7.181   6.212
19455SOL    HW170424   7.256   7.265   6.241
19455SOL    HW270425   7.302   7.175   6.112
19456SOL     OW70426   6.704   6.448   6.112
19456SOL    HW170427   6.739   6.472   6.203
19456SOL    HW270428   6.614   6.490   6.099
19457SOL     OW70429   6.405   7.179   7.181
19457SOL    HW170430   6.372   7.113   7.113
19457SOL    HW270431   6.403   7.137   7.272
19458SOL     OW70432   6.796   6.494   6.365
19458SOL    HW170433   6.728   6.430   6.401
19458SOL    HW270434   6.795   6.578   6.421
19459SOL     OW70435   5.902   6.565   6.451
19459SOL    HW170436   5.817   6.514   6.439
19459SOL    HW270437   5.916   6.584   6.548
19460SOL     OW70438   6.455   6.553   6.071
19460SOL    HW170439   6.411   6.479   6.020
19460SOL    HW270440   6.394   6.583   6.144
19461SOL     OW70441   6.806   6.912   6.951
19461SOL    HW170442   6.844   6.999   6.985
19461SOL    HW270443   6.710   6.906   6.977
19462SOL     OW70444   5.609   5.881   5.950
19462SOL    HW170445   5.667   5.880   5.868
19462SOL    HW270446   5.666   5.893   6.031
19463SOL     OW70447   7.232   7.329   5.727
19463SOL    HW170448   7.317   7.381   5.730
19463SOL    HW270449   7.223   7.284   5.638
19464SOL     OW70450   6.372   6.290   6.909
19464SOL    HW170451   6.361   6.373   6.963
19464SOL    HW270452   6.414   6.219   6.965
19465SOL     OW70453   6.337   6.346   5.930
19465SOL    HW170454   6.239   6.348   5.910
19465SOL    HW270455   6.386   6.298   5.858
19466SOL     OW70456   5.915   6.141   6.443
19466SOL    HW170457   5.984   6.092   6.389
19466SOL    HW270458   5.934   6.129   6.540
19467SOL     OW70459   6.860   7.317   6.696
19467SOL    HW170460   6.889   7.334   6.602
19467SOL    HW270461   6.790   7.246   6.698
19468SOL     OW70462   6.341   5.609   5.989
19468SOL    HW170463   6.277   5.547   5.943
19468SOL    HW270464   6.300   5.700   5.997
19469SOL     OW70465   5.555   6.729   6.096
19469SOL    HW170466   5.642   6.775   6.115
19469SOL    HW270467   5.549   6.707   5.999
19470SOL     OW70468   7.122   5.818   7.088
19470SOL    HW170469   7.073   5.904   7.086
19470SOL    HW270470   7.166   5.806   7.177
19471SOL     OW70471   6.843   5.759   6.442
19471SOL    HW170472   6.867   5.823   6.369
19471SOL    HW270473   6.868   5.799   6.530
19472SOL     OW70474   6.947   5.666   5.719
19472SOL    HW170475   6.959   5.569   5.698
19472SOL    HW270476   6.912   5.675   5.813
19473SOL     OW70477   7.138   5.539   7.106
19473SOL    HW170478   7.127   5.493   7.018
19473SOL    HW270479   7.127   5.638   7.094
19474SOL     OW70480   6.279   5.821   6.264
19474SOL    HW170481   6.268   5.746   6.329
19474SOL    HW270482   6.374   5.851   6.264
19475SOL     OW70483   6.801   6.142   6.660
19475SOL    HW170484   6.796   6.186   6.570
19475SOL    HW270485   6.843   6.205   6.726
19476SOL     OW70486   7.136   5.587   5.986
19476SOL    HW170487   7.157   5.545   5.898
19476SOL    HW270488   7.042   5.622   5.985
19477SOL     OW70489   6.149   6.931   7.322
19477SOL    HW170490   6.104   6.994   7.258
19477SOL    HW270491   6.233   6.974   7.356
19478SOL     OW70492   5.961   6.632   7.185
19478SOL    HW170493   6.017   6.598   7.109
19478SOL    HW270494   5.958   6.732   7.182
19479SOL     OW70495   6.690   6.079   6.386
19479SOL    HW170496   6.769   6.035   6.343
19479SOL    HW270497   6.655   6.021   6.459
19480SOL     OW70498   6.909   5.892   6.673
19480SOL    HW170499   6.874   5.986   6.670
19480SOL    HW270500   6.895   5.854   6.765
19481SOL     OW70501   7.056   6.016   7.390
19481SOL    HW170502   7.140   6.070   7.388
19481SOL    HW270503   7.068   5.938   7.451
19482SOL     OW70504   6.857   6.370   5.910
19482SOL    HW170505   6.797   6.397   5.985
19482SOL    HW270506   6.950   6.402   5.929
19483SOL     OW70507   7.064   6.520   6.226
19483SOL    HW170508   7.063   6.506   6.127
19483SOL    HW270509   6.974   6.500   6.263
19484SOL     OW70510   7.189   6.403   7.050
19484SOL    HW170511   7.112   6.422   7.110
19484SOL    HW270512   7.223   6.489   7.011
19485SOL     OW70513   7.171   5.829   5.692
19485SOL    HW170514   7.201   5.857   5.783
19485SOL    HW270515   7.090   5.771   5.700
19486SOL     OW70516   6.309   7.006   6.982
19486SOL    HW170517   6.254   7.087   6.963
19486SOL    HW270518   6.267   6.927   6.937
19487SOL     OW70519   5.713   5.859   7.233
19487SOL    HW170520   5.714   5.865   7.133
19487SOL    HW270521   5.624   5.827   7.264
19488SOL     OW70522   5.612   7.292   7.243
19488SOL    HW170523   5.704   7.266   7.274
19488SOL    HW270524   5.546   7.224   7.273
19489SOL     OW70525   5.769   5.906   6.168
19489SOL    HW170526   5.734   5.981   6.224
19489SOL    HW270527   5.809   5.836   6.228
19490SOL     OW70528   6.927   7.139   7.034
19490SOL    HW170529   6.866   7.204   7.079
19490SOL    HW270530   6.985   7.187   6.969
19491SOL     OW70531   5.874   6.132   5.727
19491SOL    HW170532   5.944   6.156   5.660
19491SOL    HW270533   5.913   6.140   5.819
19492SOL     OW70534   7.299   5.821   6.870
19492SOL    HW170535   7.231   5.821   6.944
19492SOL    HW270536   7.252   5.812   6.782
19493SOL     OW70537   6.046   7.354   6.266
19493SOL    HW170538   5.967   7.300   6.237
19493SOL    HW270539   6.127   7.323   6.216
19494SOL     OW70540   5.942   6.854   6.791
19494SOL    HW170541   5.918   6.879   6.885
19494SOL    HW270542   5.919   6.930   6.730
19495SOL     OW70543   6.699   7.135   7.368
19495SOL    HW170544   6.669   7.043   7.342
19495SOL    HW270545   6.720   7.188   7.287
19496SOL     OW70546   6.289   6.824   6.029
19496SOL    HW170547   6.285   6.767   5.947
19496SOL    HW270548   6.286   6.767   6.111
19497SOL     OW70549   5.945   6.354   6.267
19497SOL    HW170550   5.955   6.437   6.321
19497SOL    HW270551   5.947   6.274   6.328
19498SOL     OW70552   5.780   5.874   5.734
19498SOL    HW170553   5.823   5.819   5.663
19498SOL    HW270554   5.813   5.969   5.727
19499SOL     OW70555   5.674   6.113   6.324
19499SOL    HW170556   5.595   6.124   6.384
19499SOL    HW270557   5.758   6.116   6.378
19500SOL     OW70558   6.668   6.233   5.561
19500SOL    HW170559   6.623   6.294   5.495
19500SOL    HW270560   6.734   6.175   5.514
19501SOL     OW70561   6.433   6.200   5.715
19501SOL    HW170562   6.519   6.202   5.664
19501SOL    HW270563   6.403   6.105   5.726
19502SOL     OW70564   6.880   5.700   5.981
19502SOL    HW170565   6.793   5.688   6.028
19502SOL    HW270566   6.904   5.797   5.980
19503SOL     OW70567   6.955   6.035   7.047
19503SOL    HW170568   6.904   6.073   7.124
19503SOL    HW270569   6.897   5.973   6.995
19504SOL     OW70570   5.596   5.641   5.716
19504SOL    HW170571   5.676   5.594   5.751
19504SOL    HW270572   5.616   5.739   5.704
19505SOL     OW70573   5.892   6.594   6.722
19505SOL    HW170574   5.894   6.532   6.801
19505SOL    HW270575   5.912   6.687   6.753
19506SOL     OW70576   7.193   6.609   5.736
19506SOL    HW170577   7.292   6.618   5.752
19506SOL    HW270578   7.177   6.595   5.638
19507SOL     OW70579   6.185   6.238   6.706
19507SOL    HW170580   6.233   6.259   6.791
19507SOL    HW270581   6.095   6.199   6.727
19508SOL     OW70582   6.371   6.529   7.057
19508SOL    HW170583   6.424   6.579   6.988
19508SOL    HW270584   6.342   6.592   7.128
19509SOL     OW70585   6.722   6.568   7.209
19509SOL    HW170586   6.638   6.525   7.241
19509SOL    HW270587   6.800   6.511   7.236
19510SOL     OW70588   6.636   5.766   6.108
19510SOL    HW170589   6.590   5.852   6.131
19510SOL    HW270590   6.623   5.700   6.182
19511SOL     OW70591   6.755   7.305   7.159
19511SOL    HW170592   6.676   7.333   7.104
19511SOL    HW270593   6.797   7.386   7.200
19512SOL     OW70594   6.244   5.639   6.472
19512SOL    HW170595   6.183   5.566   6.503
19512SOL    HW270596   6.339   5.613   6.492
19513SOL     OW70597   6.523   6.776   6.415
19513SOL    HW170598   6.551   6.860   6.369
19513SOL    HW270599   6.602   6.733   6.457
19514SOL     OW70600   6.238   6.482   6.485
19514SOL    HW170601   6.276   6.403   6.437
19514SOL    HW270602   6.172   6.450   6.554
19515SOL     OW70603   5.613   6.603   6.740
19515SOL    HW170604   5.712   6.601   6.723
19515SOL    HW270605   5.567   6.537   6.680
19516SOL     OW70606   5.824   5.605   6.050
19516SOL    HW170607   5.863   5.637   6.137
19516SOL    HW270608   5.724   5.601   6.058
19517SOL     OW70609   6.251   6.179   7.209
19517SOL    HW170610   6.193   6.213   7.135
19517SOL    HW270611   6.344   6.165   7.175
19518SOL     OW70612   7.288   5.794   6.379
19518SOL    HW170613   7.250   5.808   6.471
19518SOL    HW270614   7.387   5.780   6.386
19519SOL     OW70615   6.349   6.702   6.619
19519SOL    HW170616   6.307   6.621   6.578
19519SOL    HW270617   6.409   6.746   6.553
19520SOL     OW70618   6.775   6.132   5.811
19520SOL    HW170619   6.804   6.217   5.857
19520SOL    HW270620   6.739   6.154   5.720
19521SOL     OW70621   7.072   7.001   7.217
19521SOL    HW170622   7.027   6.918   7.251
19521SOL    HW270623   7.014   7.044   7.148
19522SOL     OW70624   5.803   6.399   6.918
19522SOL    HW170625   5.809   6.308   6.959
19522SOL    HW270626   5.763   6.463   6.984
19523SOL     OW70627   6.335   6.983   5.532
19523SOL    HW170628   6.274   7.040   5.586
19523SOL    HW270629   6.401   6.937   5.592
19524SOL     OW70630   6.129   7.188   6.676
19524SOL    HW170631   6.179   7.186   6.590
19524SOL    HW270632   6.040   7.144   6.665
19525SOL     OW70633   6.298   6.668   6.280
19525SOL    HW170634   6.377   6.716   6.318
19525SOL    HW270635   6.266   6.599   6.345
19526SOL     OW70636   6.457   7.042   6.070
19526SOL    HW170637   6.520   7.058   5.994
19526SOL    HW270638   6.399   6.963   6.050
19527SOL     OW70639   5.685   6.397   6.438
19527SOL    HW170640   5.727   6.324   6.384
19527SOL    HW270641   5.611   6.439   6.386
19528SOL     OW70642   5.562   6.450   7.344
19528SOL    HW170643   5.463   6.436   7.331
19528SOL    HW270644   5.591   6.404   7.429
19529SOL     OW70645   6.526   7.362   7.011
19529SOL    HW170646   6.489   7.290   7.070
19529SOL    HW270647   6.452   7.424   6.984
19530SOL     OW70648   6.762   6.697   6.548
19530SOL    HW170649   6.789   6.794   6.551
19530SOL    HW270650   6.801   6.650   6.627
19531SOL     OW70651   6.090   5.937   7.338
19531SOL    HW170652   6.157   5.927   7.264
19531SOL    HW270653   6.087   6.033   7.367
19532SOL     OW70654   6.076   6.341   5.867
19532SOL    HW170655   6.062   6.412   5.797
19532SOL    HW270656   5.993   6.331   5.921
19533SOL     OW70657   7.147   6.473   6.563
19533SOL    HW170658   7.163   6.551   6.502
19533SOL    HW270659   7.075   6.496   6.628
19534SOL     OW70660   6.868   5.792   6.926
19534SOL    HW170661   6.936   5.765   6.995
19534SOL    HW270662   6.820   5.711   6.893
19535SOL     OW70663   5.552   5.628   6.040
19535SOL    HW170664   5.457   5.599   6.028
19535SOL    HW270665   5.565   5.718   6.001
19536SOL     OW70666   6.788   5.698   7.216
19536SOL    HW170667   6.783   5.721   7.314
19536SOL    HW270668   6.733   5.763   7.164
19537SOL     OW70669   6.027   7.124   7.165
19537SOL    HW170670   5.976   7.188   7.223
19537SOL    HW270671   6.073   7.175   7.093
19538SOL     OW70672   7.301   6.998   7.065
19538SOL    HW170673   7.382   7.022   7.119
19538SOL    HW270674   7.221   6.996   7.125
19539SOL     OW70675   6.570   5.989   6.629
19539SOL    HW170676   6.641   6.051   6.662
19539SOL    HW270677   6.580   5.900   6.673
19540SOL     OW70678   5.978   7.024   6.351
19540SOL    HW170679   5.989   6.928   6.325
19540SOL    HW270680   5.937   7.074   6.274
19541SOL     OW70681   6.661   7.123   6.708
19541SOL    HW170682   6.625   7.094   6.797
19541SOL    HW270683   6.588   7.119   6.640
19542SOL     OW70684   5.877   7.289   7.339
19542SOL    HW170685   5.893   7.388   7.333
19542SOL    HW270686   5.873   7.262   7.435
19543SOL     OW70687   5.679   6.815   7.191
19543SOL    HW170688   5.673   6.718   7.165
19543SOL    HW270689   5.601   6.864   7.152
19544SOL     OW70690   5.894   7.059   6.608
19544SOL    HW170691   5.802   7.097   6.607
19544SOL    HW270692   5.925   7.041   6.515
19545SOL     OW70693   6.604   5.653   6.359
19545SOL    HW170694   6.690   5.690   6.395
19545SOL    HW270695   6.558   5.600   6.431
19546SOL     OW70696   6.601   6.752   5.928
19546SOL    HW170697   6.691   6.767   5.967
19546SOL    HW270698   6.551   6.684   5.981
19547SOL     OW70699   7.169   6.025   6.281
19547SOL    HW170700   7.194   6.102   6.340
19547SOL    HW270701   7.216   5.943   6.312
19548SOL     OW70702   6.295   6.674   5.778
19548SOL    HW170703   6.359   6.745   5.749
19548SOL    HW270704   6.337   6.585   5.766
19549SOL     OW70705   6.332   5.688   5.654
19549SOL    HW170706   6.402   5.632   5.698
19549SOL    HW270707   6.337   5.782   5.688
19550SOL     OW70708   6.103   6.034   6.285
19550SOL    HW170709   6.155   5.949   6.293
19550SOL    HW270710   6.148   6.095   6.221
19551SOL     OW70711   6.113   6.561   6.968
19551SOL    HW170712   6.200   6.529   7.006
19551SOL    HW270713   6.128   6.644   6.915
19552SOL     OW70714   7.267   6.632   6.905
19552SOL    HW170715   7.279   6.727   6.877
19552SOL    HW270716   7.282   6.571   6.827
19553SOL     OW70717   6.870   6.655   7.003
19553SOL    HW170718   6.809   6.618   7.072
19553SOL    HW270719   6.844   6.750   6.983
19554SOL     OW70720   6.169   7.241   6.941
19554SOL    HW170721   6.201   7.335   6.953
19554SOL    HW270722   6.150   7.224   6.845
19555SOL     OW70723   5.743   6.122   7.304
19555SOL    HW170724   5.740   6.023   7.292
19555SOL    HW270725   5.795   6.144   7.387
19556SOL     OW70726   7.190   7.049   6.586
19556SOL    HW170727   7.228   7.136   6.618
19556SOL    HW270728   7.213   6.977   6.653
19557SOL     OW70729   5.507   6.496   6.246
19557SOL    HW170730   5.540   6.580   6.203
19557SOL    HW270731   5.407   6.495   6.244
19558SOL     OW70732   6.075   6.274   7.023
19558SOL    HW170733   5.988   6.225   7.024
19558SOL    HW270734   6.061   6.367   6.989
19559SOL     OW70735   7.165   6.706   6.400
19559SOL    HW170736   7.151   6.803   6.377
19559SOL    HW270737   7.124   6.649   6.330
19560SOL     OW70738   6.305   6.052   6.549
19560SOL    HW170739   6.397   6.028   6.580
19560SOL    HW270740   6.265   6.120   6.611
19561SOL     OW70741   6.202   6.795   6.834
19561SOL    HW170742   6.109   6.822   6.809
19561SOL    HW270743   6.252   6.769   6.751
19562SOL     OW70744   5.707   6.265   6.697
19562SOL    HW170745   5.736   6.326   6.770
19562SOL    HW270746   5.696   6.317   6.612
19563SOL     OW70747   5.898   6.908   7.054
19563SOL    HW170748   5.941   6.988   7.095
19563SOL    HW270749   5.815   6.885   7.106
19564SOL     OW70750   7.105   7.254   7.324
19564SOL    HW170751   7.095   7.159   7.296
19564SOL    HW270752   7.108   7.313   7.243
19565SOL     OW70753   6.867   6.785   6.002
19565SOL    HW170754   6.957   6.795   6.045
19565SOL    HW270755   6.878   6.762   5.906
19566SOL     OW70756   6.224   5.890   6.007
19566SOL    HW170757   6.126   5.895   5.987
19566SOL    HW270758   6.237   5.860   6.101
19567SOL     OW70759   7.163   5.574   6.262
19567SOL    HW170760   7.149   5.587   6.164
19567SOL    HW270761   7.208   5.655   6.300
19568SOL     OW70762   6.691   6.274   6.954
19568SOL    HW170763   6.790   6.282   6.940
19568SOL    HW270764   6.643   6.323   6.881
19569SOL     OW70765   6.338   6.257   6.365
19569SOL    HW170766   6.319   6.180   6.425
19569SOL    HW270767   6.323   6.230   6.270
19570SOL     OW70768   6.831   6.961   6.564
19570SOL    HW170769   6.772   7.019   6.620
19570SOL    HW270770   6.851   7.009   6.478
19571SOL     OW70771   6.903   5.959   6.258
19571SOL    HW170772   6.886   5.956   6.160
19571SOL    HW270773   6.997   5.988   6.275
19572SOL     OW70774   6.605   7.018   8.115
19572SOL    HW170775   6.692   7.065   8.129
19572SOL    HW270776   6.564   7.050   8.030
19573SOL     OW70777   7.148   6.874   7.901
19573SOL    HW170778   7.173   6.968   7.925
19573SOL    HW270779   7.231   6.819   7.895
19574SOL     OW70780   7.247   6.008   8.899
19574SOL    HW170781   7.158   6.024   8.942
19574SOL    HW270782   7.319   6.049   8.955
19575SOL     OW70783   5.906   5.750   7.388
19575SOL    HW170784   5.829   5.778   7.331
19575SOL    HW270785   5.983   5.812   7.372
19576SOL     OW70786   6.841   7.139   8.206
19576SOL    HW170787   6.847   7.237   8.226
19576SOL    HW270788   6.933   7.101   8.196
19577SOL     OW70789   6.780   5.667   8.599
19577SOL    HW170790   6.706   5.641   8.661
19577SOL    HW270791   6.816   5.585   8.554
19578SOL     OW70792   6.091   7.021   7.792
19578SOL    HW170793   6.046   7.045   7.878
19578SOL    HW270794   6.165   6.956   7.810
19579SOL     OW70795   6.076   5.569   7.516
19579SOL    HW170796   6.170   5.603   7.520
19579SOL    HW270797   6.018   5.636   7.470
19580SOL     OW70798   7.077   6.764   8.994
19580SOL    HW170799   7.002   6.712   8.953
19580SOL    HW270800   7.158   6.756   8.937
19581SOL     OW70801   6.859   6.617   8.504
19581SOL    HW170802   6.843   6.554   8.580
19581SOL    HW270803   6.904   6.699   8.537
19582SOL     OW70804   6.534   6.890   8.893
19582SOL    HW170805   6.455   6.948   8.874
19582SOL    HW270806   6.529   6.808   8.837
19583SOL     OW70807   6.011   6.756   8.077
19583SOL    HW170808   5.963   6.709   8.151
19583SOL    HW270809   6.108   6.729   8.078
19584SOL     OW70810   6.268   6.152   7.961
19584SOL    HW170811   6.293   6.227   7.900
19584SOL    HW270812   6.252   6.069   7.908
19585SOL     OW70813   5.978   6.926   7.546
19585SOL    HW170814   6.040   6.936   7.468
19585SOL    HW270815   6.018   6.972   7.625
19586SOL     OW70816   6.066   5.822   8.395
19586SOL    HW170817   6.128   5.901   8.385
19586SOL    HW270818   6.106   5.743   8.346
19587SOL     OW70819   5.877   6.291   7.879
19587SOL    HW170820   5.914   6.319   7.967
19587SOL    HW270821   5.779   6.276   7.887
19588SOL     OW70822   6.282   7.273   7.982
19588SOL    HW170823   6.342   7.200   7.950
19588SOL    HW270824   6.288   7.351   7.920
19589SOL     OW70825   7.295   7.128   7.702
19589SOL    HW170826   7.388   7.127   7.665
19589SOL    HW270827   7.242   7.200   7.656
19590SOL     OW70828   7.213   5.808   8.506
19590SOL    HW170829   7.262   5.886   8.544
19590SOL    HW270830   7.116   5.832   8.496
19591SOL     OW70831   6.625   5.914   7.699
19591SOL    HW170832   6.670   6.003   7.704
19591SOL    HW270833   6.629   5.870   7.789
19592SOL     OW70834   5.686   6.522   8.975
19592SOL    HW170835   5.783   6.537   8.990
19592SOL    HW270836   5.639   6.514   9.063
19593SOL     OW70837   6.065   6.221   7.405
19593SOL    HW170838   6.040   6.318   7.408
19593SOL    HW270839   6.139   6.208   7.339
19594SOL     OW70840   6.187   7.144   8.205
19594SOL    HW170841   6.233   7.197   8.134
19594SOL    HW270842   6.109   7.095   8.165
19595SOL     OW70843   7.107   7.065   8.197
19595SOL    HW170844   7.159   7.076   8.282
19595SOL    HW270845   7.160   7.101   8.120
19596SOL     OW70846   5.845   6.793   7.857
19596SOL    HW170847   5.903   6.780   7.938
19596SOL    HW270848   5.883   6.741   7.781
19597SOL     OW70849   6.733   5.794   7.478
19597SOL    HW170850   6.799   5.725   7.510
19597SOL    HW270851   6.691   5.839   7.556
19598SOL     OW70852   5.927   6.071   8.573
19598SOL    HW170853   5.915   5.975   8.597
19598SOL    HW270854   5.838   6.117   8.573
19599SOL     OW70855   5.946   5.842   7.850
19599SOL    HW170856   5.893   5.879   7.926
19599SOL    HW270857   5.899   5.863   7.764
19600SOL     OW70858   7.061   7.296   8.711
19600SOL    HW170859   6.984   7.309   8.649
19600SOL    HW270860   7.146   7.290   8.658
19601SOL     OW70861   7.361   5.995   8.643
19601SOL    HW170862   7.404   6.071   8.594
19601SOL    HW270863   7.319   6.029   8.727
19602SOL     OW70864   7.296   7.324   8.561
19602SOL    HW170865   7.367   7.339   8.630
19602SOL    HW270866   7.292   7.404   8.500
19603SOL     OW70867   6.533   6.062   8.006
19603SOL    HW170868   6.585   6.113   8.074
19603SOL    HW270869   6.439   6.097   8.002
19604SOL     OW70870   6.765   6.508   7.544
19604SOL    HW170871   6.776   6.476   7.638
19604SOL    HW270872   6.718   6.439   7.490
19605SOL     OW70873   6.479   5.996   9.198
19605SOL    HW170874   6.555   5.934   9.179
19605SOL    HW270875   6.458   5.994   9.296
19606SOL     OW70876   7.293   6.202   7.711
19606SOL    HW170877   7.328   6.146   7.636
19606SOL    HW270878   7.306   6.154   7.797
19607SOL     OW70879   6.549   7.330   7.520
19607SOL    HW170880   6.580   7.271   7.445
19607SOL    HW270881   6.555   7.280   7.606
19608SOL     OW70882   6.633   6.907   9.158
19608SOL    HW170883   6.719   6.857   9.169
19608SOL    HW270884   6.595   6.890   9.067
19609SOL     OW70885   6.276   6.689   9.103
19609SOL    HW170886   6.232   6.776   9.125
19609SOL    HW270887   6.279   6.631   9.185
19610SOL     OW70888   6.911   5.515   8.218
19610SOL    HW170889   6.863   5.602   8.220
19610SOL    HW270890   7.003   5.528   8.180
19611SOL     OW70891   5.615   6.268   7.959
19611SOL    HW170892   5.621   6.200   8.032
19611SOL    HW270893   5.587   6.356   7.998
19612SOL     OW70894   5.845   5.743   8.223
19612SOL    HW170895   5.914   5.782   8.285
19612SOL    HW270896   5.875   5.653   8.193
19613SOL     OW70897   5.910   5.785   8.618
19613SOL    HW170898   5.894   5.688   8.636
19613SOL    HW270899   5.966   5.795   8.536
19614SOL     OW70900   6.592   6.368   8.315
19614SOL    HW170901   6.612   6.444   8.253
19614SOL    HW270902   6.630   6.283   8.277
19615SOL     OW70903   5.755   7.055   7.801
19615SOL    HW170904   5.785   6.960   7.812
19615SOL    HW270905   5.810   7.100   7.730
19616SOL     OW70906   6.930   6.871   8.595
19616SOL    HW170907   6.881   6.923   8.525
19616SOL    HW270908   6.886   6.883   8.684
19617SOL     OW70909   5.725   7.106   8.074
19617SOL    HW170910   5.629   7.125   8.095
19617SOL    HW270911   5.737   7.096   7.976
19618SOL     OW70912   7.204   6.924   8.646
19618SOL    HW170913   7.226   6.941   8.742
19618SOL    HW270914   7.108   6.899   8.638
19619SOL     OW70915   6.028   6.495   7.417
19619SOL    HW170916   6.002   6.541   7.333
19619SOL    HW270917   6.002   6.551   7.496
19620SOL     OW70918   6.519   6.677   8.723
19620SOL    HW170919   6.588   6.607   8.707
19620SOL    HW270920   6.466   6.691   8.639
19621SOL     OW70921   5.638   6.335   7.582
19621SOL    HW170922   5.718   6.276   7.586
19621SOL    HW270923   5.565   6.296   7.638
19622SOL     OW70924   7.101   6.391   7.793
19622SOL    HW170925   7.156   6.310   7.773
19622SOL    HW270926   7.143   6.471   7.750
19623SOL     OW70927   6.405   7.329   8.417
19623SOL    HW170928   6.416   7.238   8.375
19623SOL    HW270929   6.321   7.330   8.471
19624SOL     OW70930   6.296   6.451   7.470
19624SOL    HW170931   6.320   6.360   7.504
19624SOL    HW270932   6.198   6.455   7.453
19625SOL     OW70933   6.911   5.976   7.807
19625SOL    HW170934   6.867   6.046   7.750
19625SOL    HW270935   7.009   5.977   7.789
19626SOL     OW70936   5.847   6.141   8.906
19626SOL    HW170937   5.813   6.061   8.857
19626SOL    HW270938   5.802   6.147   8.995
19627SOL     OW70939   5.727   5.900   8.797
19627SOL    HW170940   5.794   5.856   8.737
19627SOL    HW270941   5.635   5.874   8.768
19628SOL     OW70942   6.536   6.288   8.573
19628SOL    HW170943   6.538   6.326   8.480
19628SOL    HW270944   6.444   6.300   8.612
19629SOL     OW70945   7.181   5.913   7.804
19629SOL    HW170946   7.280   5.901   7.790
19629SOL    HW270947   7.162   5.920   7.902
19630SOL     OW70948   6.431   7.083   8.316
19630SOL    HW170949   6.497   7.050   8.249
19630SOL    HW270950   6.339   7.078   8.278
19631SOL     OW70951   6.367   5.921   7.624
19631SOL    HW170952   6.307   5.913   7.703
19631SOL    HW270953   6.463   5.919   7.653
19632SOL     OW70954   6.501   6.845   7.533
19632SOL    HW170955   6.555   6.822   7.613
19632SOL    HW270956   6.558   6.843   7.451
19633SOL     OW70957   7.248   7.149   7.968
19633SOL    HW170958   7.286   7.237   7.997
19633SOL    HW270959   7.265   7.136   7.870
19634SOL     OW70960   6.730   6.489   8.024
19634SOL    HW170961   6.777   6.541   8.094
19634SOL    HW270962   6.644   6.535   8.000
19635SOL     OW70963   6.385   7.192   9.029
19635SOL    HW170964   6.354   7.122   8.964
19635SOL    HW270965   6.390   7.152   9.121
19636SOL     OW70966   6.889   6.596   8.225
19636SOL    HW170967   6.879   6.591   8.324
19636SOL    HW270968   6.949   6.673   8.202
19637SOL     OW70969   5.873   6.625   8.274
19637SOL    HW170970   5.780   6.660   8.265
19637SOL    HW270971   5.892   6.605   8.371
19638SOL     OW70972   6.477   6.563   7.911
19638SOL    HW170973   6.438   6.485   7.864
19638SOL    HW270974   6.413   6.596   7.980
19639SOL     OW70975   6.797   6.913   8.828
19639SOL    HW170976   6.841   6.998   8.857
19639SOL    HW270977   6.700   6.915   8.853
19640SOL     OW70978   5.605   5.883   7.802
19640SOL    HW170979   5.670   5.889   7.726
19640SOL    HW270980   5.654   5.895   7.888
19641SOL     OW70981   7.156   7.330   7.580
19641SOL    HW170982   7.171   7.429   7.571
19641SOL    HW270983   7.133   7.291   7.491
19642SOL     OW70984   6.300   6.317   8.745
19642SOL    HW170985   6.328   6.403   8.788
19642SOL    HW270986   6.235   6.270   8.806
19643SOL     OW70987   6.336   6.352   7.787
19643SOL    HW170988   6.243   6.383   7.769
19643SOL    HW270989   6.371   6.303   7.707
19644SOL     OW70990   5.870   6.096   8.294
19644SOL    HW170991   5.937   6.061   8.228
19644SOL    HW270992   5.905   6.083   8.387
19645SOL     OW70993   5.862   7.310   7.633
19645SOL    HW170994   5.948   7.349   7.600
19645SOL    HW270995   5.849   7.335   7.729
19646SOL     OW70996   6.851   7.328   8.542
19646SOL    HW170997   6.876   7.346   8.447
19646SOL    HW270998   6.770   7.269   8.545
19647SOL     OW70999   5.604   6.720   8.313
19647SOL    HW171000   5.515   6.721   8.269
19647SOL    HW271001   5.604   6.656   8.389
19648SOL     OW71002   6.284   5.607   7.810
19648SOL    HW171003   6.296   5.598   7.711
19648SOL    HW271004   6.260   5.702   7.832
19649SOL     OW71005   5.573   6.709   7.889
19649SOL    HW171006   5.662   6.754   7.901
19649SOL    HW271007   5.568   6.670   7.797
19650SOL     OW71008   6.810   5.769   8.252
19650SOL    HW171009   6.829   5.837   8.181
19650SOL    HW271010   6.861   5.792   8.335
19651SOL     OW71011   6.912   5.616   7.588
19651SOL    HW171012   6.911   5.517   7.574
19651SOL    HW271013   6.886   5.637   7.682
19652SOL     OW71014   7.087   5.548   8.919
19652SOL    HW171015   7.075   5.492   8.837
19652SOL    HW271016   7.132   5.634   8.895
19653SOL     OW71017   6.286   5.820   8.111
19653SOL    HW171018   6.233   5.744   8.149
19653SOL    HW271019   6.381   5.813   8.142
19654SOL     OW71020   6.854   6.116   8.462
19654SOL    HW171021   6.803   6.133   8.378
19654SOL    HW271022   6.885   6.203   8.501
19655SOL     OW71023   7.130   5.591   7.834
19655SOL    HW171024   7.149   5.554   7.743
19655SOL    HW271025   7.039   5.632   7.835
19656SOL     OW71026   6.161   6.943   9.161
19656SOL    HW171027   6.123   6.993   9.084
19656SOL    HW271028   6.237   6.995   9.200
19657SOL     OW71029   5.950   6.570   9.020
19657SOL    HW171030   6.001   6.593   8.938
19657SOL    HW271031   5.928   6.654   9.070
19658SOL     OW71032   5.674   6.933   8.470
19658SOL    HW171033   5.654   6.862   8.402
19658SOL    HW271034   5.596   6.943   8.532
19659SOL     OW71035   6.694   6.124   8.232
19659SOL    HW171036   6.760   6.068   8.181
19659SOL    HW271037   6.634   6.064   8.285
19660SOL     OW71038   7.426   6.143   9.055
19660SOL    HW171039   7.427   6.241   9.035
19660SOL    HW271040   7.514   6.116   9.093
19661SOL     OW71041   6.942   5.857   8.480
19661SOL    HW171042   6.910   5.951   8.483
19661SOL    HW271043   6.884   5.800   8.538
19662SOL     OW71044   7.268   6.096   9.276
19662SOL    HW171045   7.324   6.109   9.194
19662SOL    HW271046   7.279   6.003   9.309
19663SOL     OW71047   6.827   6.394   7.788
19663SOL    HW171048   6.788   6.424   7.875
19663SOL    HW271049   6.927   6.392   7.794
19664SOL     OW71050   7.089   6.463   8.069
19664SOL    HW171051   7.062   6.433   7.977
19664SOL    HW271052   7.008   6.494   8.119
19665SOL     OW71053   7.112   5.805   7.555
19665SOL    HW171054   7.139   5.837   7.646
19665SOL    HW271055   7.045   5.732   7.564
19666SOL     OW71056   6.309   7.031   8.811
19666SOL    HW171057   6.262   7.113   8.779
19666SOL    HW271058   6.272   6.951   8.764
19667SOL     OW71059   5.674   5.851   9.066
19667SOL    HW171060   5.686   5.865   8.968
19667SOL    HW271061   5.578   5.832   9.086
19668SOL     OW71062   5.743   5.906   8.033
19668SOL    HW171063   5.699   5.982   8.080
19668SOL    HW271064   5.781   5.842   8.100
19669SOL     OW71065   6.915   7.148   8.896
19669SOL    HW171066   6.848   7.212   8.934
19669SOL    HW271067   6.972   7.195   8.828
19670SOL     OW71068   5.871   6.171   7.599
19670SOL    HW171069   5.951   6.188   7.541
19670SOL    HW271070   5.890   6.202   7.692
19671SOL     OW71071   7.229   5.752   8.789
19671SOL    HW171072   7.240   5.843   8.828
19671SOL    HW271073   7.218   5.758   8.690
19672SOL     OW71074   6.045   7.401   8.071
19672SOL    HW171075   5.967   7.394   8.009
19672SOL    HW271076   6.122   7.349   8.034
19673SOL     OW71077   5.915   6.854   8.594
19673SOL    HW171078   5.909   6.885   8.689
19673SOL    HW271079   5.837   6.889   8.542
19674SOL     OW71080   6.688   7.168   9.227
19674SOL    HW171081   6.661   7.074   9.206
19674SOL    HW271082   6.701   7.219   9.142
19675SOL     OW71083   6.287   6.838   7.859
19675SOL    HW171084   6.301   6.777   7.781
19675SOL    HW271085   6.284   6.785   7.943
19676SOL     OW71086   5.939   6.385   8.136
19676SOL    HW171087   5.925   6.474   8.179
19676SOL    HW271088   6.025   6.346   8.168
19677SOL     OW71089   5.810   5.899   7.616
19677SOL    HW171090   5.844   5.845   7.539
19677SOL    HW271091   5.830   5.995   7.601
19678SOL     OW71092   5.625   6.105   8.177
19678SOL    HW171093   5.551   6.147   8.229
19678SOL    HW271094   5.709   6.106   8.230
19679SOL     OW71095   6.025   6.674   7.642
19679SOL    HW171096   6.125   6.679   7.646
19679SOL    HW271097   5.989   6.759   7.603
19680SOL     OW71098   6.658   6.262   7.423
19680SOL    HW171099   6.599   6.317   7.364
19680SOL    HW271100   6.720   6.207   7.366
19681SOL     OW71101   6.406   6.207   7.560
19681SOL    HW171102   6.496   6.213   7.518
19681SOL    HW271103   6.379   6.111   7.567
19682SOL     OW71104   6.868   5.708   7.840
19682SOL    HW171105   6.784   5.699   7.893
19682SOL    HW271106   6.890   5.805   7.827
19683SOL     OW71107   5.596   5.565   7.573
19683SOL    HW171108   5.681   5.517   7.595
19683SOL    HW271109   5.615   5.663   7.564
19684SOL     OW71110   5.900   6.583   8.550
19684SOL    HW171111   5.922   6.526   8.629
19684SOL    HW271112   5.913   6.680   8.573
19685SOL     OW71113   7.227   6.590   7.646
19685SOL    HW171114   7.230   6.682   7.686
19685SOL    HW271115   7.186   6.595   7.555
19686SOL     OW71116   6.151   6.229   8.528
19686SOL    HW171117   6.196   6.269   8.608
19686SOL    HW271118   6.067   6.183   8.557
19687SOL     OW71119   6.346   6.547   8.885
19687SOL    HW171120   6.412   6.600   8.833
19687SOL    HW271121   6.325   6.595   8.971
19688SOL     OW71122   6.620   5.810   7.958
19688SOL    HW171123   6.591   5.904   7.974
19688SOL    HW271124   6.587   5.752   8.032
19689SOL     OW71125   6.730   7.318   8.998
19689SOL    HW171126   6.652   7.345   8.941
19689SOL    HW271127   6.773   7.400   9.036
19690SOL     OW71128   6.160   5.618   8.240
19690SOL    HW171129   6.092   5.554   8.204
19690SOL    HW271130   6.239   5.567   8.273
19691SOL     OW71131   6.531   6.761   8.168
19691SOL    HW171132   6.562   6.850   8.133
19691SOL    HW271133   6.572   6.744   8.257
19692SOL     OW71134   6.213   6.524   8.322
19692SOL    HW171135   6.221   6.433   8.281
19692SOL    HW271136   6.145   6.521   8.395
19693SOL     OW71137   5.626   6.538   8.513
19693SOL    HW171138   5.719   6.552   8.547
19693SOL    HW271139   5.627   6.467   8.442
19694SOL     OW71140   5.841   5.581   7.857
19694SOL    HW171141   5.883   5.672   7.860
19694SOL    HW271142   5.745   5.588   7.885
19695SOL     OW71143   6.296   6.191   9.141
19695SOL    HW171144   6.255   6.201   9.050
19695SOL    HW271145   6.363   6.116   9.139
19696SOL     OW71146   5.613   6.613   7.629
19696SOL    HW171147   5.639   6.518   7.613
19696SOL    HW271148   5.666   6.673   7.569
19697SOL     OW71149   7.290   5.775   8.241
19697SOL    HW171150   7.260   5.779   8.336
19697SOL    HW271151   7.388   5.755   8.238
19698SOL     OW71152   6.372   6.697   8.485
19698SOL    HW171153   6.326   6.635   8.421
19698SOL    HW271154   6.460   6.725   8.448
19699SOL     OW71155   6.756   6.160   7.667
19699SOL    HW171156   6.775   6.240   7.723
19699SOL    HW271157   6.723   6.189   7.577
19700SOL     OW71158   7.068   7.025   9.085
19700SOL    HW171159   7.055   6.926   9.084
19700SOL    HW271160   7.002   7.068   9.023
19701SOL     OW71161   5.796   6.375   8.757
19701SOL    HW171162   5.823   6.293   8.806
19701SOL    HW271163   5.751   6.438   8.820
19702SOL     OW71164   6.368   7.060   7.424
19702SOL    HW171165   6.316   7.111   7.491
19702SOL    HW271166   6.421   6.988   7.470
19703SOL     OW71167   6.078   7.219   8.457
19703SOL    HW171168   6.125   7.190   8.373
19703SOL    HW271169   5.979   7.213   8.444
19704SOL     OW71170   6.286   6.679   8.100
19704SOL    HW171171   6.374   6.719   8.126
19704SOL    HW271172   6.253   6.619   8.173
19705SOL     OW71173   6.449   7.068   7.889
19705SOL    HW171174   6.515   7.079   7.816
19705SOL    HW271175   6.397   6.984   7.874
19706SOL     OW71176   5.682   6.378   8.293
19706SOL    HW171177   5.767   6.350   8.249
19706SOL    HW271178   5.621   6.419   8.224
19707SOL     OW71179   5.553   6.491   9.206
19707SOL    HW171180   5.454   6.496   9.191
19707SOL    HW271181   5.571   6.437   9.289
19708SOL     OW71182   6.498   7.355   8.838
19708SOL    HW171183   6.465   7.290   8.906
19708SOL    HW271184   6.425   7.419   8.815
19709SOL     OW71185   6.634   6.753   8.419
19709SOL    HW171186   6.665   6.848   8.425
19709SOL    HW271187   6.709   6.692   8.445
19710SOL     OW71188   6.038   5.935   9.175
19710SOL    HW171189   6.078   5.931   9.084
19710SOL    HW271190   6.041   6.029   9.209
19711SOL     OW71191   6.077   6.420   7.743
19711SOL    HW171192   6.046   6.511   7.715
19711SOL    HW271193   6.004   6.374   7.793
19712SOL     OW71194   5.574   5.627   7.903
19712SOL    HW171195   5.482   5.587   7.898
19712SOL    HW271196   5.572   5.719   7.865
19713SOL     OW71197   6.050   7.130   8.973
19713SOL    HW171198   6.045   7.207   9.035
19713SOL    HW271199   6.082   7.161   8.883
19714SOL     OW71200   7.283   6.989   8.919
19714SOL    HW171201   7.343   7.069   8.925
19714SOL    HW271202   7.206   7.000   8.982
19715SOL     OW71203   6.529   6.034   8.445
19715SOL    HW171204   6.541   6.117   8.498
19715SOL    HW271205   6.568   5.956   8.494
19716SOL     OW71206   5.988   7.027   8.058
19716SOL    HW171207   5.995   6.928   8.069
19716SOL    HW271208   5.894   7.056   8.073
19717SOL     OW71209   6.608   7.207   8.574
19717SOL    HW171210   6.573   7.200   8.668
19717SOL    HW271211   6.539   7.251   8.516
19718SOL     OW71212   5.662   6.831   8.976
19718SOL    HW171213   5.643   6.734   8.963
19718SOL    HW271214   5.581   6.884   8.949
19719SOL     OW71215   5.787   7.157   8.354
19719SOL    HW171216   5.755   7.074   8.399
19719SOL    HW271217   5.783   7.145   8.255
19720SOL     OW71218   6.535   5.728   8.215
19720SOL    HW171219   6.631   5.736   8.241
19720SOL    HW271220   6.490   5.660   8.273
19721SOL     OW71221   6.619   6.763   7.766
19721SOL    HW171222   6.707   6.783   7.810
19721SOL    HW271223   6.572   6.692   7.818
19722SOL     OW71224   7.159   5.961   8.076
19722SOL    HW171225   7.215   6.042   8.058
19722SOL    HW271226   7.207   5.900   8.140
19723SOL     OW71227   6.299   6.685   7.624
19723SOL    HW171228   6.369   6.747   7.589
19723SOL    HW271229   6.314   6.594   7.587
19724SOL     OW71230   6.338   5.652   7.531
19724SOL    HW171231   6.422   5.597   7.535
19724SOL    HW271232   6.360   5.747   7.554
19725SOL     OW71233   6.067   6.008   8.120
19725SOL    HW171234   6.138   5.941   8.142
19725SOL    HW271235   6.105   6.079   8.061
19726SOL     OW71236   6.097   6.621   8.797
19726SOL    HW171237   6.184   6.583   8.828
19726SOL    HW271238   6.113   6.709   8.752
19727SOL     OW71239   5.755   6.779   7.462
19727SOL    HW171240   5.725   6.798   7.368
19727SOL    HW271241   5.826   6.844   7.488
19728SOL     OW71242   6.203   7.183   7.597
19728SOL    HW171243   6.157   7.270   7.582
19728SOL    HW271244   6.165   7.139   7.678
19729SOL     OW71245   6.872   6.651   8.843
19729SOL    HW171246   6.804   6.593   8.798
19729SOL    HW271247   6.840   6.746   8.840
19730SOL     OW71248   6.155   7.244   8.729
19730SOL    HW171249   6.178   7.340   8.743
19730SOL    HW271250   6.121   7.231   8.636
19731SOL     OW71251   5.714   6.110   9.151
19731SOL    HW171252   5.705   6.012   9.133
19731SOL    HW271253   5.749   6.124   9.244
19732SOL     OW71254   7.249   7.084   8.429
19732SOL    HW171255   7.270   7.173   8.471
19732SOL    HW271256   7.237   7.015   8.501
19733SOL     OW71257   5.527   6.499   8.075
19733SOL    HW171258   5.556   6.577   8.019
19733SOL    HW271259   5.427   6.496   8.079
19734SOL     OW71260   6.107   6.244   8.930
19734SOL    HW171261   6.021   6.196   8.917
19734SOL    HW271262   6.088   6.339   8.958
19735SOL     OW71263   7.061   6.799   8.158
19735SOL    HW171264   7.065   6.892   8.193
19735SOL    HW271265   7.072   6.800   8.059
19736SOL     OW71266   6.253   6.033   8.377
19736SOL    HW171267   6.352   6.024   8.387
19736SOL    HW271268   6.219   6.104   8.438
19737SOL     OW71269   6.192   6.838   8.649
19737SOL    HW171270   6.104   6.857   8.607
19737SOL    HW271271   6.253   6.796   8.582
19738SOL     OW71272   5.703   6.230   8.541
19738SOL    HW171273   5.731   6.295   8.613
19738SOL    HW271274   5.708   6.275   8.452
19739SOL     OW71275   5.885   6.938   8.847
19739SOL    HW171276   5.939   7.000   8.904
19739SOL    HW271277   5.808   6.902   8.901
19740SOL     OW71278   7.200   7.258   9.150
19740SOL    HW171279   7.155   7.169   9.146
19740SOL    HW271280   7.168   7.315   9.074
19741SOL     OW71281   6.887   6.804   7.837
19741SOL    HW171282   6.977   6.834   7.870
19741SOL    HW271283   6.898   6.757   7.750
19742SOL     OW71284   6.217   5.887   7.858
19742SOL    HW171285   6.119   5.872   7.852
19742SOL    HW271286   6.249   5.864   7.950
19743SOL     OW71287   7.155   5.570   8.107
19743SOL    HW171288   7.148   5.588   8.009
19743SOL    HW271289   7.203   5.646   8.151
19744SOL     OW71290   6.695   6.462   8.718
19744SOL    HW171291   6.701   6.421   8.809
19744SOL    HW271292   6.648   6.400   8.656
19745SOL     OW71293   6.194   6.276   8.201
19745SOL    HW171294   6.194   6.202   8.268
19745SOL    HW271295   6.231   6.243   8.115
19746SOL     OW71296   6.746   7.005   8.433
19746SOL    HW171297   6.686   7.069   8.483
19746SOL    HW271298   6.776   7.048   8.348
19747SOL     OW71299   6.882   5.978   8.087
19747SOL    HW171300   6.863   5.981   7.989
19747SOL    HW271301   6.981   5.979   8.102
19748SOL     OW71302   6.646   6.846   9.926
19748SOL    HW171303   6.729   6.825   9.874
19748SOL    HW271304   6.592   6.913   9.875
19749SOL     OW71305   7.124   6.797   9.819
19749SOL    HW171306   7.140   6.870   9.885
19749SOL    HW271307   7.210   6.774   9.774
19750SOL     OW71308   5.869   5.726   9.206
19750SOL    HW171309   5.794   5.759   9.149
19750SOL    HW271310   5.944   5.792   9.203
19751SOL     OW71311   6.094   7.023   9.619
19751SOL    HW171312   6.029   7.038   9.693
19751SOL    HW271313   6.169   6.966   9.651
19752SOL     OW71314   5.984   6.747   9.901
19752SOL    HW171315   5.937   6.694   9.971
19752SOL    HW271316   6.082   6.726   9.903
19753SOL     OW71317   6.264   6.217   9.769
19753SOL    HW171318   6.295   6.298   9.719
19753SOL    HW271319   6.246   6.143   9.704
19754SOL     OW71320   5.983   6.923   9.372
19754SOL    HW171321   6.052   6.930   9.300
19754SOL    HW271322   6.017   6.967   9.455
19755SOL     OW71323   5.888   6.230   9.672
19755SOL    HW171324   5.926   6.177   9.747
19755SOL    HW271325   5.816   6.290   9.706
19756SOL     OW71326   6.510   7.277   9.850
19756SOL    HW171327   6.511   7.178   9.831
19756SOL    HW271328   6.461   7.324   9.776
19757SOL     OW71329   7.255   7.171   9.580
19757SOL    HW171330   7.334   7.120   9.548
19757SOL    HW271331   7.230   7.240   9.512
19758SOL     OW71332   6.613   5.912   9.638
19758SOL    HW171333   6.664   5.996   9.654
19758SOL    HW271334   6.625   5.850   9.716
19759SOL     OW71335   6.053   6.199   9.266
19759SOL    HW171336   6.025   6.295   9.270
19759SOL    HW271337   6.147   6.193   9.232
19760SOL     OW71338   7.167   7.007   9.985
19760SOL    HW171339   7.155   7.033   0.081
19760SOL    HW271340   7.211   7.081   9.935
19761SOL     OW71341   5.838   6.607   9.709
19761SOL    HW171342   5.885   6.663   9.778
19761SOL    HW271343   5.873   6.631   9.618
19762SOL     OW71344   7.423   7.305   0.284
19762SOL    HW171345   7.416   7.365   0.363
19762SOL    HW271346   7.518   7.273   0.275
19763SOL     OW71347   6.466   6.088   9.905
19763SOL    HW171348   6.552   6.135   9.924
19763SOL    HW271349   6.403   6.151   9.860
19764SOL     OW71350   6.733   6.554   9.451
19764SOL    HW171351   6.772   6.492   9.520
19764SOL    HW271352   6.634   6.543   9.449
19765SOL     OW71353   7.259   6.216   9.517
19765SOL    HW171354   7.257   6.176   9.425
19765SOL    HW271355   7.234   6.146   9.584
19766SOL     OW71356   6.539   7.356   9.375
19766SOL    HW171357   6.580   7.279   9.326
19766SOL    HW271358   6.526   7.330   9.471
19767SOL     OW71359   5.618   6.122   9.820
19767SOL    HW171360   5.595   6.105   9.916
19767SOL    HW271361   5.654   6.215   9.810
19768SOL     OW71362   5.999   6.466   9.269
19768SOL    HW171363   5.975   6.498   9.177
19768SOL    HW271364   5.971   6.534   9.336
19769SOL     OW71365   5.595   6.328   9.425
19769SOL    HW171366   5.682   6.280   9.417
19769SOL    HW271367   5.537   6.282   9.491
19770SOL     OW71368   7.108   6.423   9.604
19770SOL    HW171369   7.159   6.345   9.568
19770SOL    HW271370   7.104   6.495   9.534
19771SOL     OW71371   6.268   6.505   9.312
19771SOL    HW171372   6.322   6.424   9.334
19771SOL    HW271373   6.172   6.479   9.297
19772SOL     OW71374   6.926   6.033   9.776
19772SOL    HW171375   6.860   6.077   9.715
19772SOL    HW271376   7.017   6.035   9.735
19773SOL     OW71377   7.196   6.017   9.703
19773SOL    HW171378   7.275   5.961   9.678
19773SOL    HW271379   7.194   6.029   9.802
19774SOL     OW71380   6.428   6.008   9.470
19774SOL    HW171381   6.341   5.998   9.518
19774SOL    HW271382   6.501   5.966   9.525
19775SOL     OW71383   6.488   6.870   9.392
19775SOL    HW171384   6.539   6.842   9.472
19775SOL    HW271385   6.549   6.872   9.312
19776SOL     OW71386   7.282   7.214   9.846
19776SOL    HW171387   7.261   7.309   9.870
19776SOL    HW271388   7.261   7.198   9.750
19777SOL     OW71389   6.723   6.497   9.885
19777SOL    HW171390   6.775   6.561   9.942
19777SOL    HW271391   6.638   6.540   9.855
19778SOL     OW71392   7.075   6.393   0.042
19778SOL    HW171393   7.014   6.314   0.051
19778SOL    HW271394   7.022   6.477   0.054
19779SOL     OW71395   6.475   6.583   9.787
19779SOL    HW171396   6.434   6.520   9.721
19779SOL    HW271397   6.404   6.621   9.846
19780SOL     OW71398   5.591   5.896   9.644
19780SOL    HW171399   5.650   5.893   9.564
19780SOL    HW271400   5.620   5.969   9.706
19781SOL     OW71401   7.220   7.374   9.395
19781SOL    HW171402   7.309   7.419   9.403
19781SOL    HW271403   7.216   7.322   9.309
19782SOL     OW71404   6.349   6.419   9.607
19782SOL    HW171405   6.251   6.433   9.597
19782SOL    HW271406   6.385   6.371   9.527
19783SOL     OW71407   6.263   5.907   9.894
19783SOL    HW171408   6.255   5.855   9.980
19783SOL    HW271409   6.346   5.961   9.896
19784SOL     OW71410   7.127   5.601   9.670
19784SOL    HW171411   7.109   5.544   9.590
19784SOL    HW271412   7.045   5.655   9.691
19785SOL     OW71413   6.840   6.405   9.655
19785SOL    HW171414   6.809   6.443   9.742
19785SOL    HW271415   6.939   6.415   9.647
19786SOL     OW71416   7.249   6.358   9.836
19786SOL    HW171417   7.199   6.386   9.754
19786SOL    HW271418   7.192   6.370   9.916
19787SOL     OW71419   7.286   5.852   9.393
19787SOL    HW171420   7.213   5.848   9.460
19787SOL    HW271421   7.323   5.761   9.378
19788SOL     OW71422   5.833   6.137   9.415
19788SOL    HW171423   5.915   6.154   9.361
19788SOL    HW271424   5.848   6.166   9.510
19789SOL     OW71425   5.983   7.304   9.946
19789SOL    HW171426   5.932   7.375   9.897
19789SOL    HW271427   5.979   7.218   9.894
19790SOL     OW71428   6.284   6.851   9.714
19790SOL    HW171429   6.286   6.796   9.630
19790SOL    HW271430   6.275   6.790   9.793
19791SOL     OW71431   5.740   5.874   9.410
19791SOL    HW171432   5.793   5.820   9.346
19791SOL    HW271433   5.772   5.968   9.410
19792SOL     OW71434   5.550   6.152   0.098
19792SOL    HW171435   5.499   6.149   0.184
19792SOL    HW271436   5.592   6.242   0.086
19793SOL     OW71437   5.999   6.668   9.480
19793SOL    HW171438   6.098   6.682   9.491
19793SOL    HW271439   5.958   6.748   9.438
19794SOL     OW71440   6.403   6.269   9.380
19794SOL    HW171441   6.376   6.252   9.286
19794SOL    HW271442   6.422   6.183   9.426
19795SOL     OW71443   6.913   5.752   9.753
19795SOL    HW171444   6.821   5.726   9.783
19795SOL    HW271445   6.926   5.851   9.767
19796SOL     OW71446   5.584   5.632   9.362
19796SOL    HW171447   5.639   5.554   9.394
19796SOL    HW271448   5.627   5.717   9.392
19797SOL     OW71449   7.119   6.588   9.385
19797SOL    HW171450   7.211   6.626   9.395
19797SOL    HW271451   7.087   6.603   9.292
19798SOL     OW71452   6.650   5.743   9.856
19798SOL    HW171453   6.668   5.780   9.947
19798SOL    HW271454   6.579   5.673   9.863
19799SOL     OW71455   7.275   5.772   0.051
19799SOL    HW171456   7.215   5.776   0.130
19799SOL    HW271457   7.364   5.734   0.078
19800SOL     OW71458   6.742   6.158   9.613
19800SOL    HW171459   6.774   6.250   9.633
19800SOL    HW271460   6.710   6.154   9.518
19801SOL     OW71461   6.360   7.086   9.281
19801SOL    HW171462   6.324   7.146   9.353
19801SOL    HW271463   6.412   7.012   9.323
19802SOL     OW71464   6.257   6.687   9.940
19802SOL    HW171465   6.269   6.765   0.001
19802SOL    HW271466   6.258   6.603   9.994
19803SOL     OW71467   6.501   7.018   9.766
19803SOL    HW171468   6.555   7.034   9.684
19803SOL    HW271469   6.421   6.963   9.744
19804SOL     OW71470   6.080   6.420   9.586
19804SOL    HW171471   6.034   6.503   9.554
19804SOL    HW271472   6.013   6.352   9.613
19805SOL     OW71473   5.535   5.627   9.680
19805SOL    HW171474   5.436   5.614   9.683
19805SOL    HW271475   5.555   5.725   9.674
19806SOL     OW71476   5.935   7.025   9.857
19806SOL    HW171477   5.966   6.930   9.863
19806SOL    HW271478   5.862   7.041   9.923
19807SOL     OW71479   6.598   6.769   9.622
19807SOL    HW171480   6.686   6.791   9.663
19807SOL    HW271481   6.549   6.704   9.681
19808SOL     OW71482   7.211   6.026   9.975
19808SOL    HW171483   7.282   6.084   0.017
19808SOL    HW271484   7.229   5.930   9.998
19809SOL     OW71485   6.275   6.721   9.474
19809SOL    HW171486   6.345   6.784   9.442
19809SOL    HW271487   6.279   6.636   9.421
19810SOL     OW71488   6.061   6.099   9.908
19810SOL    HW171489   6.112   6.013   9.915
19810SOL    HW271490   6.119   6.168   9.867
19811SOL     OW71491   5.860   6.777   9.167
19811SOL    HW171492   5.780   6.813   9.118
19811SOL    HW271493   5.885   6.841   9.239
19812SOL     OW71494   6.237   7.226   9.482
19812SOL    HW171495   6.185   7.306   9.452
19812SOL    HW271496   6.177   7.163   9.530
19813SOL     OW71497   5.688   6.386   9.782
19813SOL    HW171498   5.733   6.471   9.755
19813SOL    HW271499   5.598   6.407   9.821
19814SOL     OW71500   6.859   6.796   9.751
19814SOL    HW171501   6.949   6.791   9.795
19814SOL    HW271502   6.870   6.787   9.652
19815SOL     OW71503   6.208   5.978   9.633
19815SOL    HW171504   6.128   5.932   9.596
19815SOL    HW271505   6.232   5.939   9.722
19816SOL     OW71506   7.163   5.548   9.942
19816SOL    HW171507   7.135   5.559   9.846
19816SOL    HW271508   7.204   5.633   9.975
19817SOL     OW71509   6.942   6.131   0.032
19817SOL    HW171510   6.926   6.091   9.942
19817SOL    HW271511   7.033   6.105   0.065
19818SOL     OW71512   6.614   8.837   0.755
19818SOL    HW171513   6.708   8.869   0.757
19818SOL    HW271514   6.573   8.857   0.666
19819SOL     OW71515   7.108   8.717   0.574
19819SOL    HW171516   7.119   8.756   0.666
19819SOL    HW271517   7.184   8.745   0.516
19820SOL     OW71518   5.905   7.718   0.041
19820SOL    HW171519   5.886   7.639   9.984
19820SOL    HW271520   5.971   7.778   9.996
19821SOL     OW71521   6.875   8.936   0.806
19821SOL    HW171522   6.883   9.034   0.825
19821SOL    HW271523   6.965   8.897   0.792
19822SOL     OW71524   6.501   8.261   1.741
19822SOL    HW171525   6.475   8.197   1.669
19822SOL    HW271526   6.418   8.295   1.786
19823SOL     OW71527   6.097   8.857   0.434
19823SOL    HW171528   6.060   8.891   0.520
19823SOL    HW271529   6.170   8.792   0.453
19824SOL     OW71530   6.179   7.384   0.120
19824SOL    HW171531   6.245   7.448   0.082
19824SOL    HW271532   6.112   7.360   0.050
19825SOL     OW71533   7.094   8.391   1.531
19825SOL    HW171534   7.006   8.438   1.524
19825SOL    HW271535   7.160   8.435   1.470
19826SOL     OW71536   6.933   8.460   1.222
19826SOL    HW171537   6.889   8.441   1.310
19826SOL    HW271538   6.974   8.551   1.224
19827SOL     OW71539   6.526   8.758   1.471
19827SOL    HW171540   6.440   8.810   1.463
19827SOL    HW271541   6.523   8.680   1.408
19828SOL     OW71542   6.019   8.594   0.703
19828SOL    HW171543   5.967   8.558   0.780
19828SOL    HW271544   6.115   8.570   0.713
19829SOL     OW71545   6.277   7.996   0.555
19829SOL    HW171546   6.309   8.071   0.496
19829SOL    HW271547   6.269   7.912   0.501
19830SOL     OW71548   5.965   8.776   0.193
19830SOL    HW171549   6.007   8.836   0.125
19830SOL    HW271550   5.990   8.806   0.285
19831SOL     OW71551   6.084   7.706   0.988
19831SOL    HW171552   6.130   7.794   0.976
19831SOL    HW271553   6.152   7.632   0.984
19832SOL     OW71554   5.875   8.222   0.563
19832SOL    HW171555   5.911   8.208   0.655
19832SOL    HW271556   5.784   8.264   0.570
19833SOL     OW71557   6.330   9.081   0.658
19833SOL    HW171558   6.389   9.016   0.610
19833SOL    HW271559   6.295   9.149   0.593
19834SOL     OW71560   7.270   8.935   0.413
19834SOL    HW171561   7.365   8.951   0.384
19834SOL    HW271562   7.208   8.985   0.353
19835SOL     OW71563   5.775   8.431   1.590
19835SOL    HW171564   5.858   8.474   1.625
19835SOL    HW271565   5.726   8.387   1.665
19836SOL     OW71566   6.004   8.044   0.134
19836SOL    HW171567   6.012   8.140   0.106
19836SOL    HW271568   6.042   7.985   0.062
19837SOL     OW71569   6.198   8.970   0.860
19837SOL    HW171570   6.251   9.013   0.787
19837SOL    HW271571   6.117   8.927   0.821
19838SOL     OW71572   6.458   8.032   1.580
19838SOL    HW171573   6.481   7.962   1.648
19838SOL    HW271574   6.540   8.055   1.527
19839SOL     OW71575   7.142   8.829   0.822
19839SOL    HW171576   7.147   8.851   0.919
19839SOL    HW271577   7.207   8.885   0.771
19840SOL     OW71578   5.878   8.626   0.465
19840SOL    HW171579   5.926   8.617   0.553
19840SOL    HW271580   5.933   8.587   0.392
19841SOL     OW71581   6.606   7.708   0.205
19841SOL    HW171582   6.668   7.632   0.187
19841SOL    HW271583   6.659   7.793   0.215
19842SOL     OW71584   5.988   7.971   1.233
19842SOL    HW171585   5.983   7.871   1.240
19842SOL    HW271586   5.901   8.007   1.202
19843SOL     OW71587   6.918   8.204   1.397
19843SOL    HW171588   6.954   8.221   1.306
19843SOL    HW271589   6.974   8.251   1.465
19844SOL     OW71590   5.952   7.688   0.464
19844SOL    HW171591   5.943   7.736   0.551
19844SOL    HW271592   5.890   7.728   0.397
19845SOL     OW71593   7.075   9.130   1.321
19845SOL    HW171594   6.998   9.136   1.257
19845SOL    HW271595   7.161   9.126   1.269
19846SOL     OW71596   7.349   8.092   1.206
19846SOL    HW171597   7.440   8.056   1.182
19846SOL    HW271598   7.340   8.095   1.305
19847SOL     OW71599   7.326   9.120   1.189
19847SOL    HW171600   7.363   9.159   1.273
19847SOL    HW271601   7.402   9.094   1.129
19848SOL     OW71602   6.433   7.913   0.768
19848SOL    HW171603   6.531   7.928   0.762
19848SOL    HW271604   6.387   7.951   0.688
19849SOL     OW71605   6.798   8.311   0.168
19849SOL    HW171606   6.806   8.253   0.249
19849SOL    HW271607   6.730   8.271   0.106
19850SOL     OW71608   6.473   7.856   1.793
19850SOL    HW171609   6.537   7.793   1.837
19850SOL    HW271610   6.387   7.856   1.844
19851SOL     OW71611   7.269   8.022   0.337
19851SOL    HW171612   7.236   7.929   0.326
19851SOL    HW271613   7.321   8.030   0.422
19852SOL     OW71614   6.602   9.175   0.088
19852SOL    HW171615   6.581   9.147   9.995
19852SOL    HW271616   6.589   9.098   0.151
19853SOL     OW71617   6.301   7.413   1.708
19853SOL    HW171618   6.329   7.322   1.676
19853SOL    HW271619   6.339   7.429   1.799
19854SOL     OW71620   7.196   8.101   0.967
19854SOL    HW171621   7.142   8.185   0.975
19854SOL    HW271622   7.245   8.085   1.053
19855SOL     OW71623   6.639   8.716   1.743
19855SOL    HW171624   6.674   8.623   1.738
19855SOL    HW271625   6.585   8.736   1.661
19856SOL     OW71626   6.318   8.540   1.734
19856SOL    HW171627   6.260   8.620   1.748
19856SOL    HW271628   6.305   8.474   1.808
19857SOL     OW71629   5.608   8.042   0.531
19857SOL    HW171630   5.622   8.011   0.625
19857SOL    HW271631   5.694   8.033   0.480
19858SOL     OW71632   5.903   7.596   0.790
19858SOL    HW171633   5.968   7.617   0.863
19858SOL    HW271634   5.911   7.500   0.765
19859SOL     OW71635   5.986   7.697   1.240
19859SOL    HW171636   6.026   7.623   1.295
19859SOL    HW271637   6.013   7.686   1.145
19860SOL     OW71638   6.554   8.320   0.925
19860SOL    HW171639   6.539   8.413   0.893
19860SOL    HW271640   6.624   8.276   0.869
19861SOL     OW71641   5.740   8.878   0.422
19861SOL    HW171642   5.787   8.790   0.429
19861SOL    HW271643   5.789   8.937   0.358
19862SOL     OW71644   6.996   8.728   1.250
19862SOL    HW171645   6.960   8.768   1.165
19862SOL    HW271646   6.929   8.741   1.323
19863SOL     OW71647   5.736   8.969   0.685
19863SOL    HW171648   5.641   8.978   0.716
19863SOL    HW271649   5.737   8.939   0.589
19864SOL     OW71650   7.263   8.763   1.297
19864SOL    HW171651   7.286   8.805   1.385
19864SOL    HW271652   7.163   8.751   1.291
19865SOL     OW71653   6.005   8.315   0.068
19865SOL    HW171654   5.924   8.326   0.011
19865SOL    HW271655   6.006   8.387   0.138
19866SOL     OW71656   6.503   8.546   1.295
19866SOL    HW171657   6.549   8.460   1.271
19866SOL    HW271658   6.440   8.572   1.221
19867SOL     OW71659   5.643   8.117   0.159
19867SOL    HW171660   5.718   8.103   0.223
19867SOL    HW271661   5.558   8.085   0.200
19868SOL     OW71662   7.092   8.226   0.415
19868SOL    HW171663   7.149   8.147   0.392
19868SOL    HW271664   7.119   8.304   0.358
19869SOL     OW71665   6.416   9.228   0.987
19869SOL    HW171666   6.456   9.139   0.963
19869SOL    HW271667   6.335   9.214   1.043
19870SOL     OW71668   6.283   8.320   0.078
19870SOL    HW171669   6.336   8.237   0.095
19870SOL    HW271670   6.186   8.297   0.070
19871SOL     OW71671   6.539   8.283   1.198
19871SOL    HW171672   6.550   8.292   1.099
19871SOL    HW271673   6.453   8.237   1.219
19872SOL     OW71674   6.464   8.952   0.953
19872SOL    HW171675   6.518   8.913   0.878
19872SOL    HW271676   6.367   8.945   0.931
19873SOL     OW71677   6.382   7.858   0.269
19873SOL    HW171678   6.320   7.805   0.326
19873SOL    HW271679   6.464   7.804   0.250
19874SOL     OW71680   6.521   8.689   0.200
19874SOL    HW171681   6.563   8.667   0.288
19874SOL    HW271682   6.587   8.740   0.144
19875SOL     OW71683   7.300   8.995   0.682
19875SOL    HW171684   7.255   9.081   0.710
19875SOL    HW271685   7.286   8.981   0.584
19876SOL     OW71686   6.708   8.258   0.613
19876SOL    HW171687   6.766   8.304   0.680
19876SOL    HW271688   6.626   8.313   0.596
19877SOL     OW71689   6.388   9.015   1.646
19877SOL    HW171690   6.341   8.963   1.574
19877SOL    HW271691   6.388   8.962   1.731
19878SOL     OW71692   6.858   8.369   0.818
19878SOL    HW171693   6.929   8.327   0.875
19878SOL    HW271694   6.819   8.448   0.866
19879SOL     OW71695   5.873   8.499   0.912
19879SOL    HW171696   5.781   8.534   0.895
19879SOL    HW271697   5.884   8.481   1.010
19880SOL     OW71698   6.470   8.390   0.562
19880SOL    HW171699   6.430   8.324   0.499
19880SOL    HW271700   6.400   8.422   0.626
19881SOL     OW71701   6.800   8.765   1.438
19881SOL    HW171702   6.845   8.847   1.472
19881SOL    HW271703   6.701   8.773   1.451
19882SOL     OW71704   5.579   7.707   0.446
19882SOL    HW171705   5.641   7.740   0.374
19882SOL    HW271706   5.624   7.717   0.535
19883SOL     OW71707   7.145   9.121   0.225
19883SOL    HW171708   7.244   9.135   0.231
19883SOL    HW271709   7.116   9.128   0.129
19884SOL     OW71710   6.323   8.178   1.386
19884SOL    HW171711   6.337   8.270   1.422
19884SOL    HW271712   6.374   8.112   1.440
19885SOL     OW71713   5.614   9.252   1.433
19885SOL    HW171714   5.556   9.334   1.427
19885SOL    HW271715   5.596   9.206   1.521
19886SOL     OW71716   6.344   8.208   0.399
19886SOL    HW171717   6.250   8.240   0.390
19886SOL    HW271718   6.377   8.176   0.310
19887SOL     OW71719   5.887   7.902   0.898
19887SOL    HW171720   5.940   7.899   0.813
19887SOL    HW271721   5.922   7.832   0.961
19888SOL     OW71722   5.858   9.070   0.260
19888SOL    HW171723   5.904   9.092   0.174
19888SOL    HW271724   5.881   9.139   0.329
19889SOL     OW71725   6.858   9.136   1.149
19889SOL    HW171726   6.885   9.157   1.055
19889SOL    HW271727   6.781   9.073   1.148
19890SOL     OW71728   5.606   8.586   0.941
19890SOL    HW171729   5.524   8.592   0.884
19890SOL    HW271730   5.590   8.517   1.013
19891SOL     OW71731   6.253   7.460   0.373
19891SOL    HW171732   6.216   7.435   0.283
19891SOL    HW271733   6.250   7.559   0.384
19892SOL     OW71734   5.631   8.509   0.457
19892SOL    HW171735   5.718   8.557   0.468
19892SOL    HW271736   5.627   8.466   0.367
19893SOL     OW71737   6.734   7.469   0.131
19893SOL    HW171738   6.824   7.427   0.143
19893SOL    HW271739   6.663   7.399   0.142
19894SOL     OW71740   6.255   7.701   0.734
19894SOL    HW171741   6.259   7.622   0.796
19894SOL    HW271742   6.326   7.766   0.758
19895SOL     OW71743   7.126   7.487   0.393
19895SOL    HW171744   7.141   7.443   0.304
19895SOL    HW271745   7.038   7.458   0.430
19896SOL     OW71746   6.127   8.777   1.774
19896SOL    HW171747   6.085   8.849   1.718
19896SOL    HW271748   6.214   8.810   1.810
19897SOL     OW71749   6.007   8.535   1.688
19897SOL    HW171750   6.044   8.521   1.596
19897SOL    HW271751   6.035   8.624   1.722
19898SOL     OW71752   5.663   8.790   1.118
19898SOL    HW171753   5.648   8.727   1.042
19898SOL    HW271754   5.587   8.783   1.182
19899SOL     OW71755   7.387   8.059   1.721
19899SOL    HW171756   7.367   8.101   1.633
19899SOL    HW271757   7.483   8.030   1.723
19900SOL     OW71758   6.828   8.155   0.390
19900SOL    HW171759   6.777   8.182   0.472
19900SOL    HW271760   6.925   8.171   0.404
19901SOL     OW71761   7.095   8.365   0.657
19901SOL    HW171762   7.094   8.315   0.570
19901SOL    HW271763   7.002   8.373   0.692
19902SOL     OW71764   7.345   8.221   1.498
19902SOL    HW171765   7.255   8.264   1.504
19902SOL    HW271766   7.417   8.290   1.509
19903SOL     OW71767   7.226   7.742   0.314
19903SOL    HW171768   7.316   7.740   0.356
19903SOL    HW271769   7.171   7.666   0.348
19904SOL     OW71770   6.272   8.891   1.429
19904SOL    HW171771   6.210   8.969   1.417
19904SOL    HW271772   6.241   8.815   1.372
19905SOL     OW71773   5.584   9.100   1.662
19905SOL    HW171774   5.671   9.108   1.710
19905SOL    HW271775   5.510   9.088   1.729
19906SOL     OW71776   5.687   7.723   0.691
19906SOL    HW171777   5.678   7.813   0.733
19906SOL    HW271778   5.768   7.677   0.728
19907SOL     OW71779   6.939   8.983   1.514
19907SOL    HW171780   6.874   9.046   1.555
19907SOL    HW271781   6.992   9.031   1.444
19908SOL     OW71782   5.839   8.051   0.349
19908SOL    HW171783   5.910   8.049   0.278
19908SOL    HW271784   5.866   8.113   0.422
19909SOL     OW71785   5.899   9.194   0.715
19909SOL    HW171786   5.846   9.109   0.721
19909SOL    HW271787   5.908   9.221   0.619
19910SOL     OW71788   5.906   8.720   1.231
19910SOL    HW171789   5.904   8.748   1.327
19910SOL    HW271790   5.823   8.753   1.185
19911SOL     OW71791   6.720   8.969   1.837
19911SOL    HW171792   6.693   8.876   1.810
19911SOL    HW271793   6.731   9.025   1.755
19912SOL     OW71794   6.290   8.670   0.498
19912SOL    HW171795   6.308   8.608   0.422
19912SOL    HW271796   6.291   8.619   0.584
19913SOL     OW71797   5.933   8.239   0.832
19913SOL    HW171798   5.932   8.335   0.859
19913SOL    HW271799   6.027   8.207   0.827
19914SOL     OW71800   5.785   7.791   0.272
19914SOL    HW171801   5.831   7.773   0.185
19914SOL    HW271802   5.795   7.888   0.295
19915SOL     OW71803   5.651   7.973   0.796
19915SOL    HW171804   5.601   8.043   0.847
19915SOL    HW271805   5.738   7.955   0.841
19916SOL     OW71806   6.051   8.526   0.253
19916SOL    HW171807   6.151   8.528   0.262
19916SOL    HW271808   6.019   8.614   0.219
19917SOL     OW71809   6.679   8.108   9.978
19917SOL    HW171810   6.685   8.194   9.928
19917SOL    HW271811   6.745   8.043   9.941
19918SOL     OW71812   6.430   8.101   0.153
19918SOL    HW171813   6.519   8.096   0.107
19918SOL    HW271814   6.407   8.011   0.191
19919SOL     OW71815   5.660   7.553   0.164
19919SOL    HW171816   5.707   7.465   0.156
19919SOL    HW271817   5.724   7.621   0.200
19920SOL     OW71818   5.854   8.455   1.184
19920SOL    HW171819   5.873   8.392   1.259
19920SOL    HW271820   5.880   8.548   1.211
19921SOL     OW71821   7.179   8.414   0.241
19921SOL    HW171822   7.277   8.429   0.229
19921SOL    HW271823   7.138   8.388   0.153
19922SOL     OW71824   6.196   8.134   1.150
19922SOL    HW171825   6.245   8.152   1.235
19922SOL    HW271826   6.114   8.080   1.168
19923SOL     OW71827   6.364   8.420   1.495
19923SOL    HW171828   6.424   8.473   1.435
19923SOL    HW271829   6.360   8.464   1.585
19924SOL     OW71830   6.705   8.446   1.713
19924SOL    HW171831   6.626   8.385   1.715
19924SOL    HW271832   6.782   8.403   1.759
19925SOL     OW71833   6.750   9.140   1.627
19925SOL    HW171834   6.675   9.166   1.566
19925SOL    HW271835   6.789   9.222   1.669
19926SOL     OW71836   6.272   7.513   0.970
19926SOL    HW171837   6.214   7.438   1.001
19926SOL    HW271838   6.366   7.498   1.002
19927SOL     OW71839   5.849   9.198   1.298
19927SOL    HW171840   5.819   9.144   1.219
19927SOL    HW271841   5.771   9.216   1.357
19928SOL     OW71842   6.537   8.604   0.876
19928SOL    HW171843   6.557   8.686   0.823
19928SOL    HW271844   6.617   8.580   0.932
19929SOL     OW71845   6.223   8.342   0.955
19929SOL    HW171846   6.225   8.276   0.880
19929SOL    HW271847   6.205   8.294   1.041
19930SOL     OW71848   5.588   8.389   1.135
19930SOL    HW171849   5.678   8.416   1.169
19930SOL    HW271850   5.599   8.321   1.063
19931SOL     OW71851   5.880   7.423   0.424
19931SOL    HW171852   5.920   7.514   0.437
19931SOL    HW271853   5.783   7.426   0.448
19932SOL     OW71854   6.189   8.022   1.696
19932SOL    HW171855   6.130   8.049   1.620
19932SOL    HW271856   6.284   8.016   1.665
19933SOL     OW71857   5.662   8.399   0.212
19933SOL    HW171858   5.645   8.308   0.172
19933SOL    HW271859   5.697   8.460   0.141
19934SOL     OW71860   7.300   7.703   0.833
19934SOL    HW171861   7.307   7.615   0.880
19934SOL    HW271862   7.384   7.754   0.846
19935SOL     OW71863   6.337   8.571   1.071
19935SOL    HW171864   6.293   8.489   1.036
19935SOL    HW271865   6.407   8.602   1.006
19936SOL     OW71866   6.728   7.952   0.224
19936SOL    HW171867   6.765   8.012   0.295
19936SOL    HW271868   6.732   7.999   0.136
19937SOL     OW71869   7.093   8.859   1.702
19937SOL    HW171870   7.053   8.774   1.737
19937SOL    HW271871   7.030   8.899   1.636
19938SOL     OW71872   5.852   8.267   1.384
19938SOL    HW171873   5.929   8.214   1.422
19938SOL    HW271874   5.816   8.328   1.455
19939SOL     OW71875   6.285   8.765   0.078
19939SOL    HW171876   6.247   8.851   0.110
19939SOL    HW271877   6.373   8.748   0.124
19940SOL     OW71878   6.192   9.112   1.101
19940SOL    HW171879   6.181   9.053   1.021
19940SOL    HW271880   6.144   9.072   1.179
19941SOL     OW71881   6.298   8.520   0.748
19941SOL    HW171882   6.380   8.565   0.783
19941SOL    HW271883   6.263   8.458   0.818
19942SOL     OW71884   6.473   8.887   0.524
19942SOL    HW171885   6.523   8.913   0.441
19942SOL    HW271886   6.416   8.807   0.505
19943SOL     OW71887   5.674   8.236   0.920
19943SOL    HW171888   5.770   8.222   0.893
19943SOL    HW271889   5.623   8.273   0.843
19944SOL     OW71890   6.521   9.172   1.462
19944SOL    HW171891   6.484   9.108   1.529
19944SOL    HW271892   6.448   9.231   1.427
19945SOL     OW71893   6.767   8.551   1.011
19945SOL    HW171894   6.791   8.647   1.020
19945SOL    HW271895   6.809   8.499   1.086
19946SOL     OW71896   6.046   7.748   1.818
19946SOL    HW171897   6.113   7.725   1.748
19946SOL    HW271898   6.050   7.846   1.838
19947SOL     OW71899   6.086   8.294   0.402
19947SOL    HW171900   6.063   8.377   0.353
19947SOL    HW271901   6.012   8.270   0.464
19948SOL     OW71902   7.065   8.342   1.007
19948SOL    HW171903   7.114   8.415   0.960
19948SOL    HW271904   7.021   8.379   1.090
19949SOL     OW71905   5.610   7.433   0.483
19949SOL    HW171906   5.558   7.406   0.564
19949SOL    HW271907   5.587   7.528   0.459
19950SOL     OW71908   6.739   7.509   1.735
19950SOL    HW171909   6.771   7.492   1.828
19950SOL    HW271910   6.684   7.592   1.733
19951SOL     OW71911   6.012   8.990   1.639
19951SOL    HW171912   5.947   9.044   1.692
19951SOL    HW271913   6.046   9.044   1.562
19952SOL     OW71914   7.320   8.860   1.549
19952SOL    HW171915   7.368   8.945   1.570
19952SOL    HW271916   7.237   8.854   1.605
19953SOL     OW71917   5.992   8.867   0.706
19953SOL    HW171918   5.996   8.767   0.706
19953SOL    HW271919   5.897   8.896   0.709
19954SOL     OW71920   6.636   8.972   1.163
19954SOL    HW171921   6.589   8.978   1.251
19954SOL    HW271922   6.569   8.967   1.089
19955SOL     OW71923   5.828   9.135   1.793
19955SOL    HW171924   5.846   9.234   1.795
19955SOL    HW271925   5.826   9.100   1.887
19956SOL     OW71926   5.689   8.695   1.639
19956SOL    HW171927   5.689   8.603   1.598
19956SOL    HW271928   5.616   8.749   1.599
19957SOL     OW71929   5.735   9.052   1.085
19957SOL    HW171930   5.714   8.955   1.097
19957SOL    HW271931   5.762   9.070   0.991
19958SOL     OW71932   6.605   8.604   0.444
19958SOL    HW171933   6.694   8.614   0.488
19958SOL    HW271934   6.557   8.526   0.484
19959SOL     OW71935   7.239   7.954   0.737
19959SOL    HW171936   7.214   8.010   0.816
19959SOL    HW271937   7.241   7.857   0.764
19960SOL     OW71938   6.324   8.514   0.270
19960SOL    HW171939   6.398   8.575   0.243
19960SOL    HW271940   6.323   8.433   0.211
19961SOL     OW71941   6.415   7.538   0.100
19961SOL    HW171942   6.450   7.446   0.116
19961SOL    HW271943   6.475   7.605   0.145
19962SOL     OW71944   6.040   7.869   0.674
19962SOL    HW171945   6.102   7.796   0.705
19962SOL    HW271946   6.093   7.937   0.622
19963SOL     OW71947   6.109   8.500   1.441
19963SOL    HW171948   6.198   8.459   1.460
19963SOL    HW271949   6.121   8.577   1.378
19964SOL     OW71950   7.272   8.494   1.357
19964SOL    HW171951   7.276   8.592   1.337
19964SOL    HW271952   7.318   8.444   1.284
19965SOL     OW71953   5.776   8.614   0.058
19965SOL    HW171954   5.694   8.659   0.022
19965SOL    HW271955   5.825   8.678   0.118
19966SOL     OW71956   6.171   8.986   0.197
19966SOL    HW171957   6.173   9.086   0.199
19966SOL    HW271958   6.151   8.951   0.289
19967SOL     OW71959   6.851   8.503   1.489
19967SOL    HW171960   6.792   8.474   1.564
19967SOL    HW271961   6.834   8.600   1.470
19968SOL     OW71962   6.095   9.110   1.397
19968SOL    HW171963   6.158   9.187   1.393
19968SOL    HW271964   6.006   9.138   1.362
19969SOL     OW71965   7.186   8.911   1.072
19969SOL    HW171966   7.221   9.002   1.094
19969SOL    HW271967   7.209   8.848   1.145
19970SOL     OW71968   5.621   8.307   0.645
19970SOL    HW171969   5.608   8.387   0.587
19970SOL    HW271970   5.581   8.227   0.600
19971SOL     OW71971   6.067   8.103   1.459
19971SOL    HW171972   6.034   8.045   1.385
19971SOL    HW271973   6.155   8.142   1.434
19972SOL     OW71974   7.179   8.546   0.854
19972SOL    HW171975   7.159   8.643   0.841
19972SOL    HW271976   7.157   8.496   0.770
19973SOL     OW71977   6.234   7.934   0.961
19973SOL    HW171978   6.322   7.929   0.914
19973SOL    HW271979   6.239   8.004   1.033
19974SOL     OW71980   6.178   8.699   1.258
19974SOL    HW171981   6.083   8.713   1.230
19974SOL    HW271982   6.230   8.661   1.182
19975SOL     OW71983   5.756   8.110   1.176
19975SOL    HW171984   5.782   8.174   1.248
19975SOL    HW271985   5.745   8.160   1.090
19976SOL     OW71986   5.896   8.793   1.489
19976SOL    HW171987   5.944   8.865   1.538
19976SOL    HW271988   5.824   8.755   1.547
19977SOL     OW71989   7.190   9.106   1.800
19977SOL    HW171990   7.158   9.012   1.792
19977SOL    HW271991   7.161   9.159   1.720
19978SOL     OW71992   6.863   8.604   0.535
19978SOL    HW171993   6.950   8.643   0.564
19978SOL    HW271994   6.874   8.561   0.445
19979SOL     OW71995   6.223   7.730   0.458
19979SOL    HW171996   6.125   7.714   0.444
19979SOL    HW271997   6.249   7.702   0.550
19980SOL     OW71998   6.649   8.144   1.415
19980SOL    HW171999   6.748   8.155   1.423
19980SOL    HW272000   6.616   8.196   1.336
19981SOL     OW72001   6.184   8.137   0.778
19981SOL    HW172002   6.183   8.059   0.841
19981SOL    HW272003   6.218   8.108   0.689
19982SOL     OW72004   6.827   8.812   1.045
19982SOL    HW172005   6.758   8.864   1.095
19982SOL    HW272006   6.845   8.857   0.958
19983SOL     OW72007   6.626   8.833   2.582
19983SOL    HW172008   6.720   8.868   2.591
19983SOL    HW272009   6.592   8.853   2.490
19984SOL     OW72010   7.152   8.677   2.402
19984SOL    HW172011   7.157   8.740   2.479
19984SOL    HW272012   7.242   8.634   2.388
19985SOL     OW72013   7.151   8.007   3.302
19985SOL    HW172014   7.067   7.953   3.310
19985SOL    HW272015   7.208   7.994   3.384
19986SOL     OW72016   5.928   7.520   1.908
19986SOL    HW172017   5.880   7.538   1.994
19986SOL    HW272018   5.964   7.606   1.872
19987SOL     OW72019   6.880   8.932   2.652
19987SOL    HW172020   6.890   9.029   2.674
19987SOL    HW272021   6.970   8.892   2.634
19988SOL     OW72022   6.687   7.422   3.099
19988SOL    HW172023   6.595   7.402   3.065
19988SOL    HW272024   6.753   7.363   3.053
19989SOL     OW72025   6.517   8.258   3.603
19989SOL    HW172026   6.504   8.194   3.528
19989SOL    HW272027   6.427   8.288   3.637
19990SOL     OW72028   6.100   8.866   2.258
19990SOL    HW172029   6.055   8.894   2.343
19990SOL    HW272030   6.174   8.801   2.280
19991SOL     OW72031   6.144   7.375   1.995
19991SOL    HW172032   6.229   7.427   1.987
19991SOL    HW272033   6.069   7.427   1.955
19992SOL     OW72034   7.133   8.449   3.432
19992SOL    HW172035   7.039   8.467   3.403
19992SOL    HW272036   7.196   8.481   3.361
19993SOL     OW72037   6.980   8.464   3.095
19993SOL    HW172038   6.935   8.461   3.184
19993SOL    HW272039   7.006   8.558   3.074
19994SOL     OW72040   6.526   8.764   3.307
19994SOL    HW172041   6.441   8.817   3.304
19994SOL    HW272042   6.514   8.680   3.254
19995SOL     OW72043   6.021   8.614   2.542
19995SOL    HW172044   5.968   8.563   2.610
19995SOL    HW272045   6.118   8.588   2.548
19996SOL     OW72046   6.257   8.017   2.399
19996SOL    HW172047   6.293   8.097   2.352
19996SOL    HW272048   6.242   7.943   2.334
19997SOL     OW72049   6.814   7.900   3.583
19997SOL    HW172050   6.907   7.876   3.613
19997SOL    HW272051   6.755   7.820   3.591
19998SOL     OW72052   5.972   8.787   2.013
19998SOL    HW172053   6.029   8.802   1.932
19998SOL    HW272054   6.014   8.831   2.092
19999SOL     OW72055   6.089   7.728   2.846
19999SOL    HW172056   6.139   7.814   2.846
19999SOL    HW272057   6.151   7.654   2.820
20000SOL     OW72058   5.877   8.169   2.325
20000SOL    HW172059   5.886   8.188   2.423
20000SOL    HW272060   5.792   8.208   2.291
20001SOL     OW72061   6.348   9.083   2.458
20001SOL    HW172062   6.405   9.014   2.415
20001SOL    HW272063   6.329   9.157   2.392
20002SOL     OW72064   7.325   9.004   2.252
20002SOL    HW172065   7.413   8.961   2.233
20002SOL    HW272066   7.301   9.067   2.178
20003SOL     OW72067   7.168   7.753   2.925
20003SOL    HW172068   7.206   7.838   2.963
20003SOL    HW272069   7.068   7.757   2.927
20004SOL     OW72070   6.569   7.808   2.192
20004SOL    HW172071   6.637   7.881   2.192
20004SOL    HW272072   6.577   7.755   2.277
20005SOL     OW72073   5.694   8.413   3.440
20005SOL    HW172074   5.792   8.416   3.458
20005SOL    HW272075   5.646   8.374   3.520
20006SOL     OW72076   6.037   8.074   1.917
20006SOL    HW172077   6.015   8.172   1.913
20006SOL    HW272078   6.099   8.051   1.842
20007SOL     OW72079   6.177   9.036   2.655
20007SOL    HW172080   6.241   9.059   2.582
20007SOL    HW272081   6.107   8.974   2.619
20008SOL     OW72082   6.527   8.043   3.426
20008SOL    HW172083   6.558   7.956   3.463
20008SOL    HW272084   6.598   8.082   3.367
20009SOL     OW72085   7.148   8.837   2.644
20009SOL    HW172086   7.157   8.859   2.742
20009SOL    HW272087   7.206   8.899   2.591
20010SOL     OW72088   5.860   8.637   2.318
20010SOL    HW172089   5.916   8.632   2.401
20010SOL    HW272090   5.909   8.593   2.243
20011SOL     OW72091   6.608   7.673   1.957
20011SOL    HW172092   6.677   7.602   1.970
20011SOL    HW272093   6.596   7.724   2.042
20012SOL     OW72094   5.925   7.921   3.109
20012SOL    HW172095   5.915   7.823   3.091
20012SOL    HW272096   5.870   7.973   3.044
20013SOL     OW72097   6.968   8.189   3.186
20013SOL    HW172098   6.998   8.279   3.154
20013SOL    HW272099   7.043   8.142   3.233
20014SOL     OW72100   5.923   7.733   2.268
20014SOL    HW172101   5.934   7.769   2.360
20014SOL    HW272102   5.900   7.808   2.206
20015SOL     OW72103   7.090   9.125   3.169
20015SOL    HW172104   7.014   9.134   3.105
20015SOL    HW272105   7.176   9.117   3.117
20016SOL     OW72106   7.245   7.989   3.044
20016SOL    HW172107   7.333   8.036   3.033
20016SOL    HW272108   7.216   7.996   3.140
20017SOL     OW72109   7.341   9.117   3.035
20017SOL    HW172110   7.378   9.157   3.118
20017SOL    HW272111   7.415   9.094   2.971
20018SOL     OW72112   6.456   7.876   2.533
20018SOL    HW172113   6.521   7.928   2.588
20018SOL    HW272114   6.392   7.939   2.488
20019SOL     OW72115   6.797   8.364   2.012
20019SOL    HW172116   6.828   8.324   2.098
20019SOL    HW272117   6.735   8.300   1.966
20020SOL     OW72118   6.629   7.698   3.608
20020SOL    HW172119   6.658   7.698   3.704
20020SOL    HW272120   6.534   7.665   3.602
20021SOL     OW72121   7.368   8.092   2.232
20021SOL    HW172122   7.389   8.007   2.183
20021SOL    HW272123   7.331   8.069   2.322
20022SOL     OW72124   6.553   9.143   1.997
20022SOL    HW172125   6.591   9.091   1.921
20022SOL    HW272126   6.576   9.097   2.083
20023SOL     OW72127   6.387   7.371   3.533
20023SOL    HW172128   6.336   7.286   3.521
20023SOL    HW272129   6.378   7.403   3.627
20024SOL     OW72130   7.087   8.091   2.845
20024SOL    HW172131   7.088   8.191   2.841
20024SOL    HW272132   7.149   8.060   2.917
20025SOL     OW72133   6.632   8.720   3.585
20025SOL    HW172134   6.672   8.628   3.580
20025SOL    HW272135   6.582   8.739   3.500
20026SOL     OW72136   6.270   8.553   3.579
20026SOL    HW172137   6.225   8.640   3.597
20026SOL    HW272138   6.271   8.498   3.663
20027SOL     OW72139   5.523   8.061   2.395
20027SOL    HW172140   5.566   8.005   2.465
20027SOL    HW272141   5.516   8.155   2.426
20028SOL     OW72142   5.903   7.590   2.683
20028SOL    HW172143   5.972   7.638   2.737
20028SOL    HW272144   5.945   7.512   2.637
20029SOL     OW72145   5.904   7.648   3.049
20029SOL    HW172146   5.894   7.549   3.059
20029SOL    HW272147   5.969   7.667   2.976
20030SOL     OW72148   6.558   8.251   2.801
20030SOL    HW172149   6.588   8.329   2.747
20030SOL    HW272150   6.584   8.166   2.755
20031SOL     OW72151   5.743   8.887   2.236
20031SOL    HW172152   5.781   8.796   2.254
20031SOL    HW272153   5.794   8.930   2.162
20032SOL     OW72154   6.996   8.742   3.087
20032SOL    HW172155   6.953   8.774   3.002
20032SOL    HW272156   6.930   8.749   3.162
20033SOL     OW72157   5.729   8.974   2.500
20033SOL    HW172158   5.634   8.985   2.528
20033SOL    HW272159   5.733   8.956   2.402
20034SOL     OW72160   7.263   8.779   3.138
20034SOL    HW172161   7.285   8.819   3.227
20034SOL    HW272162   7.164   8.767   3.131
20035SOL     OW72163   6.008   8.351   1.895
20035SOL    HW172164   6.001   8.407   1.812
20035SOL    HW272165   5.993   8.409   1.975
20036SOL     OW72166   6.482   8.537   3.152
20036SOL    HW172167   6.521   8.447   3.133
20036SOL    HW272168   6.428   8.567   3.073
20037SOL     OW72169   5.690   8.249   2.127
20037SOL    HW172170   5.762   8.206   2.073
20037SOL    HW272171   5.607   8.194   2.122
20038SOL     OW72172   7.143   8.286   2.252
20038SOL    HW172173   7.219   8.222   2.258
20038SOL    HW272174   7.155   8.346   2.173
20039SOL     OW72175   6.461   9.133   2.926
20039SOL    HW172176   6.460   9.059   2.859
20039SOL    HW272177   6.368   9.149   2.959
20040SOL     OW72178   6.284   8.321   1.911
20040SOL    HW172179   6.320   8.236   1.950
20040SOL    HW272180   6.184   8.315   1.905
20041SOL     OW72181   6.898   7.841   2.304
20041SOL    HW172182   6.849   7.898   2.240
20041SOL    HW272183   6.994   7.869   2.307
20042SOL     OW72184   5.873   8.066   3.333
20042SOL    HW172185   5.895   8.005   3.257
20042SOL    HW272186   5.844   8.012   3.412
20043SOL     OW72187   5.668   7.693   3.202
20043SOL    HW172188   5.752   7.678   3.150
20043SOL    HW272189   5.616   7.769   3.162
20044SOL     OW72190   6.539   8.278   3.074
20044SOL    HW172191   6.544   8.264   2.976
20044SOL    HW272192   6.463   8.225   3.112
20045SOL     OW72193   6.437   8.934   2.752
20045SOL    HW172194   6.506   8.898   2.689
20045SOL    HW272195   6.350   8.944   2.704
20046SOL     OW72196   6.333   7.843   2.064
20046SOL    HW172197   6.263   7.788   2.109
20046SOL    HW272198   6.421   7.828   2.110
20047SOL     OW72199   6.520   8.688   2.005
20047SOL    HW172200   6.572   8.664   2.086
20047SOL    HW272201   6.580   8.687   1.925
20048SOL     OW72202   7.299   9.021   2.519
20048SOL    HW172203   7.252   9.105   2.547
20048SOL    HW272204   7.302   9.016   2.419
20049SOL     OW72205   6.743   8.312   2.448
20049SOL    HW172206   6.772   8.334   2.541
20049SOL    HW272207   6.651   8.348   2.432
20050SOL     OW72208   6.387   9.038   3.497
20050SOL    HW172209   6.343   8.976   3.431
20050SOL    HW272210   6.390   8.994   3.586
20051SOL     OW72211   6.844   8.381   2.691
20051SOL    HW172212   6.926   8.348   2.737
20051SOL    HW272213   6.798   8.450   2.748
20052SOL     OW72214   5.874   8.474   2.727
20052SOL    HW172215   5.779   8.502   2.739
20052SOL    HW272216   5.917   8.465   2.817
20053SOL     OW72217   6.489   8.407   2.395
20053SOL    HW172218   6.445   8.338   2.339
20053SOL    HW272219   6.423   8.443   2.461
20054SOL     OW72220   6.802   8.763   3.281
20054SOL    HW172221   6.845   8.846   3.316
20054SOL    HW272222   6.703   8.769   3.294
20055SOL     OW72223   7.244   9.197   2.063
20055SOL    HW172224   7.333   9.239   2.048
20055SOL    HW272225   7.211   9.159   1.977
20056SOL     OW72226   6.345   8.160   3.250
20056SOL    HW172227   6.328   8.249   3.292
20056SOL    HW272228   6.400   8.104   3.312
20057SOL     OW72229   5.611   9.232   3.252
20057SOL    HW172230   5.560   9.319   3.251
20057SOL    HW272231   5.603   9.190   3.342
20058SOL     OW72232   6.349   8.223   2.248
20058SOL    HW172233   6.256   8.256   2.234
20058SOL    HW272234   6.382   8.182   2.163
20059SOL     OW72235   5.864   7.908   2.708
20059SOL    HW172236   5.918   7.895   2.625
20059SOL    HW272237   5.905   7.858   2.784
20060SOL     OW72238   5.853   9.117   2.076
20060SOL    HW172239   5.940   9.156   2.046
20060SOL    HW272240   5.836   9.143   2.171
20061SOL     OW72241   6.874   9.140   3.001
20061SOL    HW172242   6.897   9.153   2.904
20061SOL    HW272243   6.801   9.072   3.009
20062SOL     OW72244   5.618   8.550   2.810
20062SOL    HW172245   5.532   8.549   2.759
20062SOL    HW272246   5.614   8.483   2.884
20063SOL     OW72247   6.342   7.462   2.246
20063SOL    HW172248   6.375   7.458   2.151
20063SOL    HW272249   6.287   7.544   2.259
20064SOL     OW72250   5.594   8.544   2.354
20064SOL    HW172251   5.685   8.583   2.368
20064SOL    HW272252   5.578   8.532   2.256
20065SOL     OW72253   7.120   7.685   3.421
20065SOL    HW172254   7.050   7.741   3.379
20065SOL    HW272255   7.135   7.714   3.516
20066SOL     OW72256   6.748   7.672   2.752
20066SOL    HW172257   6.771   7.731   2.675
20066SOL    HW272258   6.803   7.697   2.832
20067SOL     OW72259   6.791   7.474   2.006
20067SOL    HW172260   6.809   7.375   2.008
20067SOL    HW272261   6.797   7.510   2.099
20068SOL     OW72262   7.125   7.406   3.432
20068SOL    HW172263   7.094   7.376   3.342
20068SOL    HW272264   7.128   7.506   3.434
20069SOL     OW72265   6.241   7.705   2.537
20069SOL    HW172266   6.238   7.634   2.608
20069SOL    HW272267   6.323   7.760   2.549
20070SOL     OW72268   6.855   8.033   2.986
20070SOL    HW172269   6.921   8.057   2.914
20070SOL    HW272270   6.877   8.084   3.069
20071SOL     OW72271   6.154   8.803   3.641
20071SOL    HW172272   6.104   8.860   3.576
20071SOL    HW272273   6.235   8.853   3.674
20072SOL     OW72274   5.964   8.444   3.485
20072SOL    HW172275   6.004   8.465   3.396
20072SOL    HW272276   5.942   8.528   3.533
20073SOL     OW72277   5.656   8.785   2.955
20073SOL    HW172278   5.643   8.708   2.893
20073SOL    HW272279   5.579   8.791   3.018
20074SOL     OW72280   6.636   8.008   2.685
20074SOL    HW172281   6.721   7.972   2.645
20074SOL    HW272282   6.625   7.973   2.778
20075SOL     OW72283   7.310   7.988   3.543
20075SOL    HW172284   7.313   8.086   3.522
20075SOL    HW272285   7.404   7.954   3.554
20076SOL     OW72286   6.897   7.767   2.961
20076SOL    HW172287   6.880   7.865   2.973
20076SOL    HW272288   6.873   7.719   3.046
20077SOL     OW72289   7.077   7.830   3.660
20077SOL    HW172290   7.159   7.886   3.653
20077SOL    HW272291   7.069   7.794   3.753
20078SOL     OW72292   6.878   8.226   2.234
20078SOL    HW172293   6.828   8.257   2.315
20078SOL    HW272294   6.976   8.244   2.246
20079SOL     OW72295   7.074   8.383   2.507
20079SOL    HW172296   7.087   8.359   2.410
20079SOL    HW272297   6.976   8.384   2.528
20080SOL     OW72298   7.331   8.255   3.481
20080SOL    HW172299   7.250   8.310   3.461
20080SOL    HW272300   7.412   8.300   3.444
20081SOL     OW72301   6.274   8.901   3.282
20081SOL    HW172302   6.214   8.980   3.270
20081SOL    HW272303   6.243   8.826   3.225
20082SOL     OW72304   5.690   7.681   3.482
20082SOL    HW172305   5.681   7.688   3.383
20082SOL    HW272306   5.608   7.638   3.520
20083SOL     OW72307   5.591   9.098   3.492
20083SOL    HW172308   5.678   9.106   3.541
20083SOL    HW272309   5.515   9.121   3.553
20084SOL     OW72310   5.650   7.639   2.602
20084SOL    HW172311   5.633   7.738   2.596
20084SOL    HW272312   5.743   7.623   2.635
20085SOL     OW72313   6.938   8.983   3.357
20085SOL    HW172314   6.873   9.047   3.396
20085SOL    HW272315   6.995   9.030   3.290
20086SOL     OW72316   5.886   7.970   2.129
20086SOL    HW172317   5.945   7.999   2.054
20086SOL    HW272318   5.892   8.037   2.204
20087SOL     OW72319   7.122   7.595   3.151
20087SOL    HW172320   7.158   7.636   3.235
20087SOL    HW272321   7.157   7.645   3.072
20088SOL     OW72322   5.879   9.156   2.650
20088SOL    HW172323   5.820   9.108   2.585
20088SOL    HW272324   5.975   9.138   2.627
20089SOL     OW72325   5.908   8.720   3.053
20089SOL    HW172326   5.905   8.739   3.152
20089SOL    HW272327   5.822   8.748   3.011
20090SOL     OW72328   6.711   8.977   3.679
20090SOL    HW172329   6.683   8.884   3.653
20090SOL    HW272330   6.723   9.032   3.597
20091SOL     OW72331   6.296   8.680   2.324
20091SOL    HW172332   6.306   8.619   2.245
20091SOL    HW272333   6.299   8.626   2.408
20092SOL     OW72334   5.922   8.238   2.587
20092SOL    HW172335   5.910   8.327   2.632
20092SOL    HW272336   6.008   8.197   2.617
20093SOL     OW72337   5.612   7.916   2.610
20093SOL    HW172338   5.548   7.947   2.680
20093SOL    HW272339   5.706   7.924   2.645
20094SOL     OW72340   6.030   8.539   2.106
20094SOL    HW172341   6.130   8.544   2.105
20094SOL    HW272342   5.993   8.623   2.067
20095SOL     OW72343   6.679   8.129   1.892
20095SOL    HW172344   6.608   8.172   1.836
20095SOL    HW272345   6.765   8.128   1.843
20096SOL     OW72346   6.412   8.099   2.012
20096SOL    HW172347   6.504   8.090   1.975
20096SOL    HW272348   6.371   8.008   2.024
20097SOL     OW72349   6.789   7.587   2.254
20097SOL    HW172350   6.711   7.587   2.317
20097SOL    HW272351   6.844   7.670   2.269
20098SOL     OW72352   6.926   7.855   3.329
20098SOL    HW172353   6.872   7.890   3.405
20098SOL    HW272354   6.873   7.786   3.280
20099SOL     OW72355   5.996   8.468   2.975
20099SOL    HW172356   6.026   8.428   3.062
20099SOL    HW272357   5.958   8.559   2.992
20100SOL     OW72358   7.195   8.423   2.025
20100SOL    HW172359   7.284   8.464   2.045
20100SOL    HW272360   7.193   8.394   1.929
20101SOL     OW72361   6.181   8.031   3.070
20101SOL    HW172362   6.230   8.079   3.142
20101SOL    HW272363   6.092   8.001   3.104
20102SOL     OW72364   6.334   8.414   3.354
20102SOL    HW172365   6.396   8.466   3.295
20102SOL    HW272366   6.318   8.465   3.438
20103SOL     OW72367   6.707   8.451   3.551
20103SOL    HW172368   6.628   8.390   3.560
20103SOL    HW272369   6.789   8.403   3.582
20104SOL     OW72370   6.583   7.654   2.434
20104SOL    HW172371   6.543   7.735   2.476
20104SOL    HW272372   6.558   7.573   2.487
20105SOL     OW72373   6.748   9.144   3.464
20105SOL    HW172374   6.671   9.173   3.408
20105SOL    HW272375   6.790   9.224   3.507
20106SOL     OW72376   6.259   7.537   2.751
20106SOL    HW172377   6.223   7.450   2.785
20106SOL    HW272378   6.358   7.532   2.743
20107SOL     OW72379   5.850   9.192   3.119
20107SOL    HW172380   5.822   9.142   3.038
20107SOL    HW272381   5.770   9.207   3.178
20108SOL     OW72382   6.527   8.615   2.710
20108SOL    HW172383   6.562   8.693   2.658
20108SOL    HW272384   6.598   8.581   2.772
20109SOL     OW72385   6.188   8.389   2.778
20109SOL    HW172386   6.189   8.294   2.747
20109SOL    HW272387   6.116   8.401   2.847
20110SOL     OW72388   5.573   8.366   3.005
20110SOL    HW172389   5.619   8.314   3.077
20110SOL    HW272390   5.507   8.307   2.959
20111SOL     OW72391   5.837   7.469   2.231
20111SOL    HW172392   5.876   7.559   2.248
20111SOL    HW272393   5.757   7.455   2.290
20112SOL     OW72394   6.152   7.987   3.671
20112SOL    HW172395   6.131   8.052   3.599
20112SOL    HW272396   6.242   8.008   3.710
20113SOL     OW72397   5.606   8.505   2.081
20113SOL    HW172398   5.650   8.416   2.095
20113SOL    HW272399   5.660   8.559   2.017
20114SOL     OW72400   6.338   8.586   2.917
20114SOL    HW172401   6.287   8.510   2.877
20114SOL    HW272402   6.404   8.621   2.850
20115SOL     OW72403   6.757   8.006   2.135
20115SOL    HW172404   6.798   8.086   2.179
20115SOL    HW272405   6.724   8.032   2.044
20116SOL     OW72406   7.091   8.856   3.545
20116SOL    HW172407   7.049   8.774   3.584
20116SOL    HW272408   7.029   8.897   3.479
20117SOL     OW72409   5.700   8.247   3.222
20117SOL    HW172410   5.765   8.180   3.257
20117SOL    HW272411   5.691   8.322   3.288
20118SOL     OW72412   6.359   8.873   1.877
20118SOL    HW172413   6.312   8.930   1.945
20118SOL    HW272414   6.422   8.810   1.925
20119SOL     OW72415   6.184   9.090   2.938
20119SOL    HW172416   6.171   9.058   2.844
20119SOL    HW272417   6.111   9.053   2.996
20120SOL     OW72418   6.305   8.531   2.572
20120SOL    HW172419   6.385   8.572   2.615
20120SOL    HW272420   6.259   8.471   2.638
20121SOL     OW72421   6.495   8.880   2.345
20121SOL    HW172422   6.564   8.886   2.273
20121SOL    HW272423   6.433   8.805   2.326
20122SOL     OW72424   5.678   8.200   2.717
20122SOL    HW172425   5.765   8.196   2.667
20122SOL    HW272426   5.608   8.241   2.660
20123SOL     OW72427   6.517   9.200   3.315
20123SOL    HW172428   6.477   9.135   3.379
20123SOL    HW272429   6.445   9.257   3.275
20124SOL     OW72430   6.734   8.549   2.877
20124SOL    HW172431   6.766   8.644   2.884
20124SOL    HW272432   6.752   8.502   2.964
20125SOL     OW72433   6.118   7.718   3.618
20125SOL    HW172434   6.199   7.688   3.568
20125SOL    HW272435   6.126   7.815   3.640
20126SOL     OW72436   6.093   8.295   2.218
20126SOL    HW172437   6.060   8.384   2.187
20126SOL    HW272438   6.018   8.244   2.260
20127SOL     OW72439   7.071   8.361   2.855
20127SOL    HW172440   7.118   8.434   2.806
20127SOL    HW272441   7.041   8.396   2.944
20128SOL     OW72442   6.839   7.632   3.190
20128SOL    HW172443   6.931   7.594   3.194
20128SOL    HW272444   6.773   7.559   3.172
20129SOL     OW72445   5.614   7.451   2.406
20129SOL    HW172446   5.525   7.471   2.364
20129SOL    HW272447   5.632   7.517   2.478
20130SOL     OW72448   6.797   7.476   3.578
20130SOL    HW172449   6.868   7.482   3.648
20130SOL    HW272450   6.743   7.561   3.579
20131SOL     OW72451   6.007   8.979   3.482
20131SOL    HW172452   5.941   9.031   3.536
20131SOL    HW272453   6.038   9.035   3.405
20132SOL     OW72454   7.323   8.854   3.398
20132SOL    HW172455   7.371   8.940   3.418
20132SOL    HW272456   7.239   8.849   3.453
20133SOL     OW72457   6.601   7.925   2.939
20133SOL    HW172458   6.681   7.976   2.969
20133SOL    HW272459   6.600   7.836   2.984
20134SOL     OW72460   5.990   8.886   2.524
20134SOL    HW172461   5.998   8.786   2.535
20134SOL    HW272462   5.893   8.911   2.522
20135SOL     OW72463   6.654   8.979   3.043
20135SOL    HW172464   6.619   8.933   3.124
20135SOL    HW272465   6.583   9.039   3.004
20136SOL     OW72466   5.827   9.133   3.640
20136SOL    HW172467   5.850   9.230   3.631
20136SOL    HW272468   5.824   9.108   3.737
20137SOL     OW72469   5.672   8.693   3.448
20137SOL    HW172470   5.654   8.597   3.427
20137SOL    HW272471   5.591   8.748   3.426
20138SOL     OW72472   5.737   9.053   2.904
20138SOL    HW172473   5.716   8.956   2.909
20138SOL    HW272474   5.776   9.074   2.814
20139SOL     OW72475   6.528   7.509   2.744
20139SOL    HW172476   6.609   7.568   2.748
20139SOL    HW272477   6.531   7.444   2.820
20140SOL     OW72478   6.625   8.605   2.245
20140SOL    HW172479   6.717   8.620   2.282
20140SOL    HW272480   6.579   8.533   2.298
20141SOL     OW72481   7.117   7.895   2.662
20141SOL    HW172482   7.103   7.973   2.723
20141SOL    HW272483   7.156   7.819   2.714
20142SOL     OW72484   6.304   8.540   2.083
20142SOL    HW172485   6.380   8.598   2.054
20142SOL    HW272486   6.309   8.452   2.036
20143SOL     OW72487   6.400   7.484   1.964
20143SOL    HW172488   6.455   7.401   1.967
20143SOL    HW272489   6.460   7.564   1.956
20144SOL     OW72490   6.024   7.866   2.493
20144SOL    HW172491   6.094   7.799   2.520
20144SOL    HW272492   6.069   7.952   2.467
20145SOL     OW72493   6.094   8.481   3.245
20145SOL    HW172494   6.178   8.441   3.281
20145SOL    HW272495   6.114   8.573   3.209
20146SOL     OW72496   7.308   8.525   3.238
20146SOL    HW172497   7.295   8.619   3.207
20146SOL    HW272498   7.351   8.471   3.165
20147SOL     OW72499   5.759   8.643   1.904
20147SOL    HW172500   5.734   8.669   1.811
20147SOL    HW272501   5.827   8.707   1.940
20148SOL     OW72502   6.200   9.009   2.046
20148SOL    HW172503   6.151   9.093   2.026
20148SOL    HW272504   6.170   8.972   2.134
20149SOL     OW72505   6.876   8.509   3.341
20149SOL    HW172506   6.811   8.473   3.408
20149SOL    HW272507   6.852   8.604   3.321
20150SOL     OW72508   6.089   9.121   3.254
20150SOL    HW172509   6.152   9.198   3.243
20150SOL    HW272510   6.003   9.141   3.208
20151SOL     OW72511   5.801   7.923   3.549
20151SOL    HW172512   5.757   7.836   3.527
20151SOL    HW272513   5.789   7.942   3.647
20152SOL     OW72514   7.194   8.916   2.899
20152SOL    HW172515   7.231   9.006   2.924
20152SOL    HW272516   7.211   8.851   2.972
20153SOL     OW72517   5.498   8.315   2.494
20153SOL    HW172518   5.537   8.396   2.451
20153SOL    HW272519   5.402   8.332   2.516
20154SOL     OW72520   6.076   8.174   3.486
20154SOL    HW172521   6.010   8.131   3.425
20154SOL    HW272522   6.061   8.273   3.487
20155SOL     OW72523   7.171   8.563   2.694
20155SOL    HW172524   7.154   8.660   2.678
20155SOL    HW272525   7.138   8.510   2.617
20156SOL     OW72526   6.272   7.948   2.835
20156SOL    HW172527   6.371   7.936   2.839
20156SOL    HW272528   6.239   7.983   2.923
20157SOL     OW72529   6.180   8.712   3.107
20157SOL    HW172530   6.087   8.728   3.074
20157SOL    HW272531   6.236   8.675   3.033
20158SOL     OW72532   5.762   8.096   2.964
20158SOL    HW172533   5.776   8.179   3.019
20158SOL    HW272534   5.737   8.121   2.871
20159SOL     OW72535   5.899   8.776   3.319
20159SOL    HW172536   5.945   8.844   3.376
20159SOL    HW272537   5.815   8.746   3.364
20160SOL     OW72538   7.191   9.098   3.642
20160SOL    HW172539   7.156   9.005   3.629
20160SOL    HW272540   7.163   9.155   3.565
20161SOL     OW72541   6.893   8.635   2.316
20161SOL    HW172542   6.984   8.645   2.357
20161SOL    HW272543   6.902   8.619   2.218
20162SOL     OW72544   6.196   7.702   2.268
20162SOL    HW172545   6.097   7.701   2.254
20162SOL    HW272546   6.216   7.696   2.366
20163SOL     OW72547   6.704   8.156   3.261
20163SOL    HW172548   6.802   8.171   3.250
20163SOL    HW272549   6.655   8.206   3.189
20164SOL     OW72550   6.174   8.133   2.653
20164SOL    HW172551   6.203   8.067   2.722
20164SOL    HW272552   6.211   8.106   2.564
20165SOL     OW72553   6.812   8.810   2.890
20165SOL    HW172554   6.747   8.868   2.940
20165SOL    HW272555   6.831   8.851   2.801
20166SOL     OW72556   6.852   7.867   2.578
20166SOL    HW172557   6.852   7.853   2.479
20166SOL    HW272558   6.946   7.879   2.610
20167SOL     OW72559   6.646   8.854   4.447
20167SOL    HW172560   6.741   8.888   4.449
20167SOL    HW272561   6.610   8.864   4.355
20168SOL     OW72562   7.123   8.691   4.257
20168SOL    HW172563   7.144   8.744   4.339
20168SOL    HW272564   7.208   8.662   4.214
20169SOL     OW72565   7.165   8.039   5.075
20169SOL    HW172566   7.099   7.987   5.130
20169SOL    HW272567   7.221   8.096   5.136
20170SOL     OW72568   5.883   7.596   3.659
20170SOL    HW172569   5.813   7.624   3.594
20170SOL    HW272570   5.968   7.645   3.640
20171SOL     OW72571   6.902   8.949   4.503
20171SOL    HW172572   6.912   9.046   4.526
20171SOL    HW272573   6.993   8.909   4.486
20172SOL     OW72574   6.737   7.456   5.020
20172SOL    HW172575   6.660   7.405   5.060
20172SOL    HW272576   6.786   7.398   4.956
20173SOL     OW72577   6.517   8.259   5.452
20173SOL    HW172578   6.494   8.197   5.377
20173SOL    HW272579   6.433   8.286   5.499
20174SOL     OW72580   6.119   8.869   4.103
20174SOL    HW172581   6.069   8.884   4.188
20174SOL    HW272582   6.192   8.803   4.120
20175SOL     OW72583   6.081   7.428   3.800
20175SOL    HW172584   6.175   7.460   3.789
20175SOL    HW272585   6.019   7.491   3.752
20176SOL     OW72586   7.128   8.427   5.246
20176SOL    HW172587   7.033   8.446   5.221
20176SOL    HW272588   7.189   8.462   5.174
20177SOL     OW72589   6.966   8.439   4.915
20177SOL    HW172590   6.923   8.438   5.005
20177SOL    HW272591   7.012   8.526   4.900
20178SOL     OW72592   6.558   8.739   5.169
20178SOL    HW172593   6.480   8.799   5.157
20178SOL    HW272594   6.549   8.660   5.109
20179SOL     OW72595   6.051   8.574   4.375
20179SOL    HW172596   6.027   8.482   4.406
20179SOL    HW272597   6.150   8.584   4.374
20180SOL     OW72598   6.278   8.024   4.258
20180SOL    HW172599   6.309   8.094   4.194
20180SOL    HW272600   6.202   7.972   4.217
20181SOL     OW72601   6.806   7.906   5.441
20181SOL    HW172602   6.900   7.888   5.471
20181SOL    HW272603   6.751   7.823   5.452
20182SOL     OW72604   5.989   8.788   3.861
20182SOL    HW172605   6.052   8.801   3.784
20182SOL    HW272606   6.029   8.829   3.943
20183SOL     OW72607   6.072   7.688   4.717
20183SOL    HW172608   6.094   7.785   4.712
20183SOL    HW272609   6.151   7.634   4.687
20184SOL     OW72610   6.379   9.078   4.342
20184SOL    HW172611   6.430   9.005   4.297
20184SOL    HW272612   6.367   9.154   4.279
20185SOL     OW72613   7.298   9.002   4.096
20185SOL    HW172614   7.391   8.968   4.080
20185SOL    HW272615   7.272   9.063   4.021
20186SOL     OW72616   7.209   7.712   4.810
20186SOL    HW172617   7.248   7.804   4.821
20186SOL    HW272618   7.109   7.718   4.810
20187SOL     OW72619   6.578   7.761   4.071
20187SOL    HW172620   6.628   7.847   4.081
20187SOL    HW272621   6.586   7.708   4.156
20188SOL     OW72622   5.662   8.382   5.294
20188SOL    HW172623   5.749   8.335   5.283
20188SOL    HW272624   5.622   8.359   5.383
20189SOL     OW72625   5.962   8.101   3.843
20189SOL    HW172626   5.960   8.190   3.798
20189SOL    HW272627   6.020   8.038   3.790
20190SOL     OW72628   6.218   8.971   4.530
20190SOL    HW172629   6.277   9.015   4.462
20190SOL    HW272630   6.140   8.928   4.484
20191SOL     OW72631   6.499   8.037   5.277
20191SOL    HW172632   6.531   7.954   5.322
20191SOL    HW272633   6.572   8.076   5.221
20192SOL     OW72634   7.163   8.829   4.501
20192SOL    HW172635   7.172   8.852   4.598
20192SOL    HW272636   7.216   8.893   4.446
20193SOL     OW72637   5.889   8.646   4.158
20193SOL    HW172638   5.938   8.621   4.241
20193SOL    HW272639   5.929   8.596   4.080
20194SOL     OW72640   6.736   7.705   3.851
20194SOL    HW172641   6.833   7.714   3.875
20194SOL    HW272642   6.680   7.713   3.934
20195SOL     OW72643   5.910   7.901   5.009
20195SOL    HW172644   5.915   7.802   4.999
20195SOL    HW272645   5.839   7.937   4.949
20196SOL     OW72646   6.940   8.164   4.979
20196SOL    HW172647   6.955   8.259   4.952
20196SOL    HW272648   7.026   8.124   5.010
20197SOL     OW72649   5.913   7.634   4.137
20197SOL    HW172650   5.867   7.683   4.212
20197SOL    HW272651   5.865   7.651   4.051
20198SOL     OW72652   7.092   9.127   5.006
20198SOL    HW172653   7.013   9.144   4.947
20198SOL    HW272654   7.175   9.124   4.950
20199SOL     OW72655   7.302   7.966   4.853
20199SOL    HW172656   7.398   7.991   4.865
20199SOL    HW272657   7.251   7.992   4.935
20200SOL     OW72658   7.349   9.127   4.870
20200SOL    HW172659   7.383   9.163   4.957
20200SOL    HW272660   7.426   9.111   4.808
20201SOL     OW72661   6.455   7.851   4.367
20201SOL    HW172662   6.520   7.895   4.429
20201SOL    HW272663   6.402   7.921   4.319
20202SOL     OW72664   6.779   8.372   3.848
20202SOL    HW172665   6.796   8.320   3.932
20202SOL    HW272666   6.723   8.317   3.786
20203SOL     OW72667   6.644   7.686   5.490
20203SOL    HW172668   6.686   7.671   5.580
20203SOL    HW272669   6.551   7.651   5.491
20204SOL     OW72670   7.225   8.042   4.077
20204SOL    HW172671   7.191   7.950   4.096
20204SOL    HW272672   7.306   8.060   4.134
20205SOL     OW72673   6.554   9.168   3.843
20205SOL    HW172674   6.586   9.107   3.770
20205SOL    HW272675   6.571   9.126   3.932
20206SOL     OW72676   6.306   7.409   5.387
20206SOL    HW172677   6.335   7.314   5.374
20206SOL    HW272678   6.346   7.445   5.471
20207SOL     OW72679   7.221   8.078   4.616
20207SOL    HW172680   7.162   8.158   4.630
20207SOL    HW272681   7.238   8.034   4.705
20208SOL     OW72682   6.653   8.703   5.440
20208SOL    HW172683   6.692   8.611   5.436
20208SOL    HW272684   6.607   8.723   5.353
20209SOL     OW72685   6.289   8.515   5.429
20209SOL    HW172686   6.239   8.598   5.453
20209SOL    HW272687   6.286   8.450   5.505
20210SOL     OW72688   6.928   7.359   4.579
20210SOL    HW172689   6.878   7.445   4.591
20210SOL    HW272690   7.006   7.374   4.519
20211SOL     OW72691   7.281   7.607   5.477
20211SOL    HW172692   7.239   7.641   5.561
20211SOL    HW272693   7.291   7.508   5.481
20212SOL     OW72694   5.601   8.024   4.172
20212SOL    HW172695   5.622   8.023   4.269
20212SOL    HW272696   5.507   7.994   4.157
20213SOL     OW72697   5.848   7.600   4.568
20213SOL    HW172698   5.933   7.620   4.616
20213SOL    HW272699   5.841   7.501   4.553
20214SOL     OW72700   5.914   7.624   4.942
20214SOL    HW172701   5.892   7.527   4.945
20214SOL    HW272702   5.972   7.643   4.863
20215SOL     OW72703   6.663   8.187   4.663
20215SOL    HW172704   6.726   8.249   4.616
20215SOL    HW272705   6.640   8.110   4.603
20216SOL     OW72706   5.750   8.881   4.113
20216SOL    HW172707   5.791   8.791   4.128
20216SOL    HW272708   5.793   8.924   4.033
20217SOL     OW72709   7.015   8.716   4.925
20217SOL    HW172710   6.975   8.758   4.844
20217SOL    HW272711   6.952   8.724   5.002
20218SOL     OW72712   5.754   8.953   4.384
20218SOL    HW172713   5.663   8.983   4.415
20218SOL    HW272714   5.750   8.934   4.286
20219SOL     OW72715   7.278   8.770   4.978
20219SOL    HW172716   7.297   8.802   5.070
20219SOL    HW272717   7.180   8.750   4.969
20220SOL     OW72718   6.008   8.349   3.741
20220SOL    HW172719   5.985   8.381   3.649
20220SOL    HW272720   5.997   8.424   3.805
20221SOL     OW72721   6.512   8.534   4.991
20221SOL    HW172722   6.550   8.445   4.968
20221SOL    HW272723   6.458   8.568   4.914
20222SOL     OW72724   7.116   8.290   4.095
20222SOL    HW172725   7.156   8.198   4.089
20222SOL    HW272726   7.164   8.352   4.034
20223SOL     OW72727   6.399   9.205   4.702
20223SOL    HW172728   6.447   9.123   4.670
20223SOL    HW272729   6.327   9.178   4.766
20224SOL     OW72730   6.283   8.299   3.760
20224SOL    HW172731   6.308   8.207   3.792
20224SOL    HW272732   6.184   8.303   3.747
20225SOL     OW72733   6.870   7.830   4.165
20225SOL    HW172734   6.830   7.896   4.102
20225SOL    HW272735   6.969   7.830   4.155
20226SOL     OW72736   5.820   8.072   5.214
20226SOL    HW172737   5.846   7.999   5.151
20226SOL    HW272738   5.776   8.032   5.295
20227SOL     OW72739   5.727   7.670   5.151
20227SOL    HW172740   5.797   7.653   5.082
20227SOL    HW272741   5.636   7.657   5.110
20228SOL     OW72742   6.563   8.276   4.908
20228SOL    HW172743   6.592   8.245   4.817
20228SOL    HW272744   6.480   8.227   4.935
20229SOL     OW72745   7.146   7.791   4.174
20229SOL    HW172746   7.223   7.727   4.169
20229SOL    HW272747   7.137   7.825   4.268
20230SOL     OW72748   6.482   8.950   4.641
20230SOL    HW172749   6.543   8.918   4.568
20230SOL    HW272750   6.387   8.936   4.613
20231SOL     OW72751   6.348   7.760   3.931
20231SOL    HW172752   6.277   7.725   3.993
20231SOL    HW272753   6.436   7.758   3.977
20232SOL     OW72754   6.505   8.703   3.839
20232SOL    HW172755   6.560   8.675   3.919
20232SOL    HW272756   6.562   8.699   3.757
20233SOL     OW72757   7.290   9.021   4.365
20233SOL    HW172758   7.249   9.107   4.395
20233SOL    HW272759   7.286   9.016   4.265
20234SOL     OW72760   6.732   8.293   4.304
20234SOL    HW172761   6.764   8.323   4.394
20234SOL    HW272762   6.645   8.338   4.283
20235SOL     OW72763   6.419   9.013   5.353
20235SOL    HW172764   6.392   8.950   5.280
20235SOL    HW272765   6.417   8.965   5.441
20236SOL     OW72766   6.853   8.355   4.546
20236SOL    HW172767   6.940   8.325   4.585
20236SOL    HW272768   6.820   8.436   4.594
20237SOL     OW72769   6.489   8.397   4.217
20237SOL    HW172770   6.441   8.328   4.163
20237SOL    HW272771   6.428   8.434   4.286
20238SOL     OW72772   6.828   8.748   5.122
20238SOL    HW172773   6.872   8.833   5.152
20238SOL    HW272774   6.730   8.753   5.140
20239SOL     OW72775   5.576   7.715   4.135
20239SOL    HW172776   5.623   7.723   4.047
20239SOL    HW272777   5.641   7.731   4.209
20240SOL     OW72778   7.225   9.188   3.904
20240SOL    HW172779   7.311   9.238   3.896
20240SOL    HW272780   7.199   9.150   3.815
20241SOL     OW72781   6.356   8.164   5.064
20241SOL    HW172782   6.341   8.254   5.105
20241SOL    HW272783   6.397   8.103   5.132
20242SOL     OW72784   6.346   8.207   4.070
20242SOL    HW172785   6.251   8.236   4.058
20242SOL    HW272786   6.374   8.152   3.992
20243SOL     OW72787   5.825   7.879   4.610
20243SOL    HW172788   5.907   7.899   4.556
20243SOL    HW272789   5.813   7.780   4.619
20244SOL     OW72790   5.847   9.144   3.929
20244SOL    HW172791   5.935   9.177   3.895
20244SOL    HW272792   5.842   9.160   4.028
20245SOL     OW72793   6.863   9.162   4.848
20245SOL    HW172794   6.892   9.179   4.754
20245SOL    HW272795   6.790   9.094   4.849
20246SOL     OW72796   6.352   7.418   4.094
20246SOL    HW172797   6.302   7.351   4.039
20246SOL    HW272798   6.296   7.501   4.105
20247SOL     OW72799   7.136   7.680   5.252
20247SOL    HW172800   7.088   7.768   5.252
20247SOL    HW272801   7.184   7.668   5.338
20248SOL     OW72802   6.816   7.613   4.618
20248SOL    HW172803   6.826   7.676   4.541
20248SOL    HW272804   6.860   7.651   4.699
20249SOL     OW72805   6.946   7.436   3.851
20249SOL    HW172806   6.986   7.370   3.788
20249SOL    HW272807   6.853   7.409   3.875
20250SOL     OW72808   7.151   7.398   5.260
20250SOL    HW172809   7.132   7.358   5.171
20250SOL    HW272810   7.132   7.496   5.257
20251SOL     OW72811   6.231   7.703   4.400
20251SOL    HW172812   6.240   7.636   4.473
20251SOL    HW272813   6.316   7.754   4.391
20252SOL     OW72814   6.790   7.997   4.825
20252SOL    HW172815   6.747   8.061   4.761
20252SOL    HW272816   6.845   8.048   4.891
20253SOL     OW72817   7.051   7.450   4.137
20253SOL    HW172818   7.052   7.419   4.042
20253SOL    HW272819   6.960   7.486   4.159
20254SOL     OW72820   6.159   8.755   5.501
20254SOL    HW172821   6.118   8.809   5.427
20254SOL    HW272822   6.243   8.800   5.532
20255SOL     OW72823   5.944   8.437   5.385
20255SOL    HW172824   6.004   8.430   5.306
20255SOL    HW272825   5.889   8.520   5.378
20256SOL     OW72826   6.637   7.943   4.542
20256SOL    HW172827   6.722   7.903   4.509
20256SOL    HW272828   6.609   7.896   4.626
20257SOL     OW72829   7.292   8.003   5.426
20257SOL    HW172830   7.287   8.078   5.359
20257SOL    HW272831   7.387   7.986   5.450
20258SOL     OW72832   6.931   7.756   4.826
20258SOL    HW172833   6.888   7.845   4.817
20258SOL    HW272834   6.918   7.722   4.919
20259SOL     OW72835   7.067   7.861   5.506
20259SOL    HW172836   7.147   7.913   5.477
20259SOL    HW272837   7.093   7.800   5.582
20260SOL     OW72838   6.849   8.233   4.072
20260SOL    HW172839   6.803   8.254   4.159
20260SOL    HW272840   6.947   8.254   4.080
20261SOL     OW72841   7.089   8.371   4.355
20261SOL    HW172842   7.094   8.346   4.258
20261SOL    HW272843   6.994   8.365   4.386
20262SOL     OW72844   7.300   8.211   5.239
20262SOL    HW172845   7.231   8.284   5.238
20262SOL    HW272846   7.391   8.252   5.243
20263SOL     OW72847   7.012   7.702   3.906
20263SOL    HW172848   7.060   7.712   3.993
20263SOL    HW272849   6.998   7.605   3.887
20264SOL     OW72850   6.335   8.893   5.119
20264SOL    HW172851   6.278   8.975   5.126
20264SOL    HW272852   6.298   8.833   5.047
20265SOL     OW72853   5.705   7.688   5.422
20265SOL    HW172854   5.722   7.679   5.324
20265SOL    HW272855   5.610   7.662   5.442
20266SOL     OW72856   5.755   7.744   4.339
20266SOL    HW172857   5.720   7.832   4.371
20266SOL    HW272858   5.788   7.690   4.416
20267SOL     OW72859   6.959   8.971   5.194
20267SOL    HW172860   6.900   9.035   5.244
20267SOL    HW272861   7.011   9.021   5.125
20268SOL     OW72862   5.789   7.937   3.986
20268SOL    HW172863   5.847   8.007   3.945
20268SOL    HW272864   5.726   7.979   4.051
20269SOL     OW72865   7.329   7.635   5.056
20269SOL    HW172866   7.258   7.657   5.123
20269SOL    HW272867   7.293   7.648   4.964
20270SOL     OW72868   5.917   9.181   4.444
20270SOL    HW172869   5.868   9.096   4.463
20270SOL    HW272870   5.907   9.204   4.347
20271SOL     OW72871   6.709   8.963   5.532
20271SOL    HW172872   6.686   8.870   5.503
20271SOL    HW272873   6.739   9.016   5.453
20272SOL     OW72874   6.312   8.679   4.163
20272SOL    HW172875   6.320   8.619   4.084
20272SOL    HW272876   6.327   8.627   4.247
20273SOL     OW72877   6.027   8.307   4.462
20273SOL    HW172878   5.948   8.266   4.417
20273SOL    HW272879   6.098   8.237   4.475
20274SOL     OW72880   5.768   7.683   3.905
20274SOL    HW172881   5.814   7.660   3.819
20274SOL    HW272882   5.779   7.781   3.924
20275SOL     OW72883   5.631   7.986   4.447
20275SOL    HW172884   5.549   8.022   4.492
20275SOL    HW272885   5.699   7.961   4.516
20276SOL     OW72886   6.036   8.534   3.945
20276SOL    HW172887   6.136   8.534   3.946
20276SOL    HW272888   6.004   8.622   3.909
20277SOL     OW72889   6.648   8.060   3.741
20277SOL    HW172890   6.612   8.137   3.688
20277SOL    HW272891   6.714   8.009   3.686
20278SOL     OW72892   6.383   8.033   3.839
20278SOL    HW172893   6.478   8.038   3.808
20278SOL    HW272894   6.362   7.941   3.871
20279SOL     OW72895   6.813   7.564   4.187
20279SOL    HW172896   6.728   7.557   4.239
20279SOL    HW272897   6.835   7.661   4.173
20280SOL     OW72898   6.966   7.904   5.204
20280SOL    HW172899   6.908   7.933   5.280
20280SOL    HW272900   6.919   7.834   5.150
20281SOL     OW72901   5.618   7.457   3.842
20281SOL    HW172902   5.688   7.386   3.852
20281SOL    HW272903   5.656   7.545   3.871
20282SOL     OW72904   7.258   8.436   3.908
20282SOL    HW172905   7.354   8.410   3.898
20282SOL    HW272906   7.208   8.414   3.824
20283SOL     OW72907   6.159   8.017   4.924
20283SOL    HW172908   6.213   8.077   4.983
20283SOL    HW272909   6.075   7.990   4.971
20284SOL     OW72910   6.354   8.413   5.184
20284SOL    HW172911   6.419   8.467   5.131
20284SOL    HW272912   6.345   8.453   5.276
20285SOL     OW72913   6.719   8.434   5.390
20285SOL    HW172914   6.636   8.381   5.407
20285SOL    HW272915   6.799   8.380   5.416
20286SOL     OW72916   6.583   7.615   4.330
20286SOL    HW172917   6.534   7.701   4.346
20286SOL    HW272918   6.571   7.555   4.409
20287SOL     OW72919   6.788   9.130   5.328
20287SOL    HW172920   6.705   9.153   5.277
20287SOL    HW272921   6.818   9.210   5.380
20288SOL     OW72922   6.288   7.547   4.620
20288SOL    HW172923   6.255   7.461   4.659
20288SOL    HW272924   6.387   7.542   4.608
20289SOL     OW72925   6.552   8.628   4.563
20289SOL    HW172926   6.587   8.710   4.518
20289SOL    HW272927   6.626   8.585   4.616
20290SOL     OW72928   6.238   8.389   4.627
20290SOL    HW172929   6.275   8.296   4.624
20290SOL    HW272930   6.141   8.387   4.603
20291SOL     OW72931   5.799   7.379   4.136
20291SOL    HW172932   5.852   7.462   4.153
20291SOL    HW272933   5.705   7.393   4.168
20292SOL     OW72934   6.216   8.022   5.383
20292SOL    HW172935   6.163   8.080   5.321
20292SOL    HW272936   6.312   8.026   5.358
20293SOL     OW72937   7.253   7.641   4.539
20293SOL    HW172938   7.247   7.647   4.639
20293SOL    HW272939   7.349   7.643   4.512
20294SOL     OW72940   6.362   8.594   4.764
20294SOL    HW172941   6.311   8.515   4.727
20294SOL    HW272942   6.429   8.624   4.697
20295SOL     OW72943   6.730   7.999   4.003
20295SOL    HW172944   6.771   8.085   4.033
20295SOL    HW272945   6.700   8.009   3.908
20296SOL     OW72946   7.098   8.837   5.388
20296SOL    HW172947   7.055   8.756   5.428
20296SOL    HW272948   7.037   8.877   5.320
20297SOL     OW72949   6.369   8.928   3.751
20297SOL    HW172950   6.339   8.987   3.826
20297SOL    HW272951   6.422   8.851   3.788
20298SOL     OW72952   6.201   9.025   4.806
20298SOL    HW172953   6.192   9.007   4.708
20298SOL    HW272954   6.200   8.938   4.855
20299SOL     OW72955   6.340   8.534   4.411
20299SOL    HW172956   6.420   8.580   4.451
20299SOL    HW272957   6.297   8.476   4.480
20300SOL     OW72958   6.511   8.877   4.209
20300SOL    HW172959   6.573   8.897   4.133
20300SOL    HW272960   6.448   8.804   4.182
20301SOL     OW72961   5.543   8.308   5.519
20301SOL    HW172962   5.443   8.300   5.514
20301SOL    HW272963   5.576   8.257   5.599
20302SOL     OW72964   6.560   9.188   5.195
20302SOL    HW172965   6.505   9.127   5.251
20302SOL    HW272966   6.506   9.270   5.173
20303SOL     OW72967   6.772   8.551   4.716
20303SOL    HW172968   6.798   8.648   4.722
20303SOL    HW272969   6.805   8.503   4.798
20304SOL     OW72970   6.122   7.771   5.447
20304SOL    HW172971   6.158   7.710   5.376
20304SOL    HW272972   6.158   7.863   5.432
20305SOL     OW72973   6.084   8.265   4.037
20305SOL    HW172974   6.050   8.357   4.019
20305SOL    HW272975   6.032   8.199   3.983
20306SOL     OW72976   7.094   8.325   4.684
20306SOL    HW172977   7.140   8.402   4.640
20306SOL    HW272978   7.059   8.354   4.773
20307SOL     OW72979   6.893   7.667   5.082
20307SOL    HW172980   6.964   7.635   5.145
20307SOL    HW272981   6.828   7.593   5.064
20308SOL     OW72982   5.543   7.453   4.201
20308SOL    HW172983   5.448   7.425   4.193
20308SOL    HW272984   5.551   7.551   4.179
20309SOL     OW72985   6.850   7.500   5.442
20309SOL    HW172986   6.898   7.494   5.529
20309SOL    HW272987   6.781   7.572   5.447
20310SOL     OW72988   6.048   8.924   5.314
20310SOL    HW172989   5.996   8.971   5.386
20310SOL    HW272990   6.083   8.992   5.249
20311SOL     OW72991   7.326   8.838   5.239
20311SOL    HW172992   7.373   8.924   5.259
20311SOL    HW272993   7.243   8.832   5.294
20312SOL     OW72994   6.559   7.843   4.787
20312SOL    HW172995   6.636   7.894   4.825
20312SOL    HW272996   6.564   7.747   4.818
20313SOL     OW72997   6.014   8.855   4.375
20313SOL    HW172998   6.016   8.755   4.383
20313SOL    HW272999   5.920   8.887   4.385
20314SOL     OW73000   6.652   8.979   4.853
20314SOL    HW173001   6.604   8.976   4.941
20314SOL    HW273002   6.586   8.970   4.779
20315SOL     OW73003   5.923   9.040   5.527
20315SOL    HW173004   5.967   9.126   5.554
20315SOL    HW273005   5.885   8.995   5.608
20316SOL     OW73006   5.757   8.637   5.336
20316SOL    HW173007   5.709   8.552   5.312
20316SOL    HW273008   5.696   8.715   5.324
20317SOL     OW73009   6.562   7.505   4.597
20317SOL    HW173010   6.654   7.542   4.609
20317SOL    HW273011   6.553   7.420   4.649
20318SOL     OW73012   6.616   8.604   4.072
20318SOL    HW173013   6.704   8.624   4.114
20318SOL    HW273014   6.574   8.525   4.118
20319SOL     OW73015   7.132   7.868   4.443
20319SOL    HW173016   7.165   7.948   4.492
20319SOL    HW273017   7.176   7.786   4.480
20320SOL     OW73018   6.309   8.530   3.923
20320SOL    HW173019   6.378   8.594   3.888
20320SOL    HW273020   6.322   8.441   3.880
20321SOL     OW73021   6.357   7.507   3.777
20321SOL    HW173022   6.427   7.452   3.821
20321SOL    HW273023   6.353   7.597   3.820
20322SOL     OW73024   6.049   7.904   4.464
20322SOL    HW173025   6.103   7.825   4.435
20322SOL    HW273026   6.109   7.982   4.478
20323SOL     OW73027   6.087   8.444   5.152
20323SOL    HW173028   6.187   8.438   5.157
20323SOL    HW273029   6.060   8.540   5.149
20324SOL     OW73030   7.293   8.502   5.045
20324SOL    HW173031   7.297   8.599   5.020
20324SOL    HW273032   7.349   8.448   4.982
20325SOL     OW73033   5.864   8.640   3.644
20325SOL    HW173034   5.789   8.675   3.588
20325SOL    HW273035   5.884   8.705   3.717
20326SOL     OW73036   6.238   9.068   3.957
20326SOL    HW173037   6.168   9.123   3.912
20326SOL    HW273038   6.194   9.000   4.015
20327SOL     OW73039   6.870   8.485   5.165
20327SOL    HW173040   6.809   8.453   5.237
20327SOL    HW273041   6.857   8.583   5.151
20328SOL     OW73042   6.162   9.103   5.137
20328SOL    HW173043   6.178   9.167   5.213
20328SOL    HW273044   6.146   9.155   5.053
20329SOL     OW73045   5.728   7.962   5.452
20329SOL    HW173046   5.727   7.862   5.448
20329SOL    HW273047   5.811   7.994   5.496
20330SOL     OW73048   7.207   8.918   4.751
20330SOL    HW173049   7.247   9.007   4.773
20330SOL    HW273050   7.227   8.854   4.825
20331SOL     OW73051   6.071   8.175   5.216
20331SOL    HW173052   5.976   8.143   5.216
20331SOL    HW273053   6.074   8.269   5.182
20332SOL     OW73054   7.191   8.548   4.542
20332SOL    HW173055   7.172   8.646   4.529
20332SOL    HW273056   7.158   8.497   4.463
20333SOL     OW73057   6.304   7.947   4.706
20333SOL    HW173058   6.392   7.908   4.734
20333SOL    HW273059   6.252   7.973   4.787
20334SOL     OW73060   6.208   8.762   4.918
20334SOL    HW173061   6.127   8.714   4.952
20334SOL    HW273062   6.259   8.700   4.858
20335SOL     OW73063   5.733   8.011   4.828
20335SOL    HW173064   5.766   8.105   4.828
20335SOL    HW273065   5.768   7.963   4.748
20336SOL     OW73066   5.990   8.696   5.180
20336SOL    HW173067   6.024   8.782   5.219
20336SOL    HW273068   5.902   8.674   5.222
20337SOL     OW73069   7.194   9.080   5.484
20337SOL    HW173070   7.159   8.988   5.468
20337SOL    HW273071   7.168   9.140   5.409
20338SOL     OW73072   6.872   8.636   4.165
20338SOL    HW173073   6.958   8.654   4.214
20338SOL    HW273074   6.893   8.606   4.072
20339SOL     OW73075   6.188   7.645   4.132
20339SOL    HW173076   6.089   7.635   4.122
20339SOL    HW273077   6.210   7.662   4.228
20340SOL     OW73078   7.129   7.429   4.402
20340SOL    HW173079   7.105   7.449   4.307
20340SOL    HW273080   7.173   7.508   4.443
20341SOL     OW73081   6.689   8.144   5.117
20341SOL    HW173082   6.787   8.140   5.102
20341SOL    HW273083   6.646   8.200   5.046
20342SOL     OW73084   6.227   8.118   4.511
20342SOL    HW173085   6.262   8.058   4.582
20342SOL    HW273086   6.265   8.091   4.422
20343SOL     OW73087   6.840   8.814   4.735
20343SOL    HW173088   6.774   8.870   4.785
20343SOL    HW273089   6.863   8.859   4.648
20344SOL     OW73090   6.860   7.822   4.440
20344SOL    HW173091   6.843   7.821   4.341
20344SOL    HW273092   6.956   7.844   4.457
20345SOL     OW73093   6.627   8.820   6.307
20345SOL    HW173094   6.720   8.855   6.313
20345SOL    HW273095   6.588   8.842   6.217
20346SOL     OW73096   7.157   8.647   6.113
20346SOL    HW173097   7.165   8.718   6.182
20346SOL    HW273098   7.248   8.615   6.086
20347SOL     OW73099   7.164   7.952   6.955
20347SOL    HW173100   7.070   7.984   6.962
20347SOL    HW273101   7.219   7.994   7.028
20348SOL     OW73102   5.918   7.665   5.590
20348SOL    HW173103   5.840   7.664   5.527
20348SOL    HW273104   5.996   7.707   5.545
20349SOL     OW73105   6.881   8.927   6.358
20349SOL    HW173106   6.891   9.026   6.370
20349SOL    HW273107   6.970   8.886   6.339
20350SOL     OW73108   6.742   7.495   6.879
20350SOL    HW173109   6.665   7.445   6.920
20350SOL    HW273110   6.787   7.437   6.812
20351SOL     OW73111   6.506   8.248   7.269
20351SOL    HW173112   6.485   8.298   7.185
20351SOL    HW273113   6.435   8.265   7.337
20352SOL     OW73114   6.113   8.859   5.949
20352SOL    HW173115   6.068   8.894   6.031
20352SOL    HW273116   6.184   8.793   5.976
20353SOL     OW73117   6.140   7.559   5.739
20353SOL    HW173118   6.215   7.562   5.672
20353SOL    HW273119   6.055   7.586   5.694
20354SOL     OW73120   6.544   8.751   7.022
20354SOL    HW173121   6.467   8.812   7.009
20354SOL    HW273122   6.538   8.676   6.956
20355SOL     OW73123   6.014   8.633   6.253
20355SOL    HW173124   5.962   8.589   6.326
20355SOL    HW273125   6.108   8.598   6.252
20356SOL     OW73126   6.271   7.994   6.108
20356SOL    HW173127   6.302   8.072   6.054
20356SOL    HW273128   6.244   7.920   6.047
20357SOL     OW73129   6.839   7.942   7.277
20357SOL    HW173130   6.936   7.922   7.291
20357SOL    HW273131   6.788   7.856   7.271
20358SOL     OW73132   5.978   8.774   5.712
20358SOL    HW173133   6.042   8.776   5.635
20358SOL    HW273134   6.018   8.823   5.790
20359SOL     OW73135   6.117   7.707   6.557
20359SOL    HW173136   6.184   7.781   6.554
20359SOL    HW273137   6.161   7.622   6.527
20360SOL     OW73138   5.894   8.144   6.039
20360SOL    HW173139   5.927   8.171   6.129
20360SOL    HW273140   5.800   8.110   6.046
20361SOL     OW73141   6.341   9.112   6.129
20361SOL    HW173142   6.403   9.038   6.102
20361SOL    HW273143   6.350   9.187   6.063
20362SOL     OW73144   7.325   9.000   5.949
20362SOL    HW173145   7.417   8.963   5.936
20362SOL    HW273146   7.297   9.049   5.866
20363SOL     OW73147   7.193   7.717   6.623
20363SOL    HW173148   7.237   7.803   6.648
20363SOL    HW273149   7.094   7.727   6.626
20364SOL     OW73150   6.612   7.767   5.907
20364SOL    HW173151   6.663   7.853   5.907
20364SOL    HW273152   6.625   7.720   5.995
20365SOL     OW73153   5.771   8.423   7.114
20365SOL    HW173154   5.858   8.459   7.148
20365SOL    HW273155   5.726   8.372   7.187
20366SOL     OW73156   5.977   8.064   5.555
20366SOL    HW173157   5.988   8.162   5.573
20366SOL    HW273158   6.055   8.031   5.503
20367SOL     OW73159   6.211   8.988   6.333
20367SOL    HW173160   6.260   9.041   6.263
20367SOL    HW273161   6.131   8.944   6.292
20368SOL     OW73162   6.508   8.008   7.125
20368SOL    HW173163   6.579   7.942   7.148
20368SOL    HW273164   6.519   8.090   7.182
20369SOL     OW73165   7.158   8.820   6.346
20369SOL    HW173166   7.162   8.842   6.444
20369SOL    HW273167   7.215   8.885   6.296
20370SOL     OW73168   5.853   8.644   6.026
20370SOL    HW173169   5.909   8.637   6.109
20370SOL    HW273170   5.900   8.598   5.950
20371SOL     OW73171   6.762   7.632   5.723
20371SOL    HW173172   6.825   7.567   5.765
20371SOL    HW273173   6.708   7.678   5.794
20372SOL     OW73174   5.938   7.992   6.714
20372SOL    HW173175   5.915   7.896   6.729
20372SOL    HW273176   5.855   8.046   6.705
20373SOL     OW73177   5.911   7.605   6.007
20373SOL    HW173178   5.907   7.647   6.098
20373SOL    HW273179   5.875   7.669   5.939
20374SOL     OW73180   7.100   9.120   6.870
20374SOL    HW173181   7.028   9.132   6.802
20374SOL    HW273182   7.187   9.100   6.823
20375SOL     OW73183   7.294   7.954   6.709
20375SOL    HW173184   7.387   7.990   6.717
20375SOL    HW273185   7.248   7.961   6.797
20376SOL     OW73186   7.346   9.072   6.742
20376SOL    HW173187   7.382   9.124   6.820
20376SOL    HW273188   7.419   9.054   6.677
20377SOL     OW73189   6.483   7.850   6.218
20377SOL    HW173190   6.550   7.903   6.271
20377SOL    HW273191   6.416   7.911   6.177
20378SOL     OW73192   6.794   8.364   5.705
20378SOL    HW173193   6.810   8.321   5.793
20378SOL    HW273194   6.751   8.299   5.643
20379SOL     OW73195   6.656   7.736   7.256
20379SOL    HW173196   6.643   7.710   7.352
20379SOL    HW273197   6.581   7.698   7.201
20380SOL     OW73198   7.296   8.068   5.907
20380SOL    HW173199   7.245   7.982   5.916
20380SOL    HW273200   7.359   8.077   5.984
20381SOL     OW73201   6.532   9.165   5.657
20381SOL    HW173202   6.575   9.101   5.593
20381SOL    HW273203   6.545   9.133   5.751
20382SOL     OW73204   6.323   7.437   7.262
20382SOL    HW173205   6.347   7.343   7.239
20382SOL    HW273206   6.329   7.450   7.361
20383SOL     OW73207   7.244   8.048   6.455
20383SOL    HW173208   7.213   8.143   6.459
20383SOL    HW273209   7.254   8.012   6.548
20384SOL     OW73210   6.644   8.731   7.288
20384SOL    HW173211   6.675   8.636   7.291
20384SOL    HW273212   6.601   8.749   7.200
20385SOL     OW73213   6.319   8.533   7.270
20385SOL    HW173214   6.263   8.615   7.279
20385SOL    HW273215   6.317   8.481   7.355
20386SOL     OW73216   6.933   7.370   6.431
20386SOL    HW173217   6.890   7.460   6.435
20386SOL    HW273218   7.018   7.376   6.379
20387SOL     OW73219   7.233   7.604   7.290
20387SOL    HW173220   7.199   7.603   7.384
20387SOL    HW273221   7.211   7.517   7.246
20388SOL     OW73222   5.637   8.061   6.095
20388SOL    HW173223   5.651   7.997   6.171
20388SOL    HW273224   5.608   8.149   6.131
20389SOL     OW73225   5.925   7.588   6.362
20389SOL    HW173226   5.989   7.640   6.419
20389SOL    HW273227   5.971   7.505   6.329
20390SOL     OW73228   5.886   7.718   6.709
20390SOL    HW173229   5.820   7.663   6.658
20390SOL    HW273230   5.975   7.712   6.665
20391SOL     OW73231   6.529   8.217   6.436
20391SOL    HW173232   6.438   8.189   6.408
20391SOL    HW273233   6.597   8.156   6.395
20392SOL     OW73234   5.730   8.905   5.958
20392SOL    HW173235   5.765   8.811   5.963
20392SOL    HW273236   5.790   8.960   5.900
20393SOL     OW73237   7.012   8.759   6.790
20393SOL    HW173238   6.948   8.792   6.721
20393SOL    HW273239   6.963   8.738   6.874
20394SOL     OW73240   7.278   8.699   6.844
20394SOL    HW173241   7.307   8.751   6.925
20394SOL    HW273242   7.183   8.720   6.823
20395SOL     OW73243   6.023   8.328   5.615
20395SOL    HW173244   5.991   8.366   5.528
20395SOL    HW273245   6.008   8.393   5.688
20396SOL     OW73246   6.510   8.544   6.842
20396SOL    HW173247   6.594   8.503   6.808
20396SOL    HW273248   6.444   8.552   6.767
20397SOL     OW73249   5.611   8.188   5.754
20397SOL    HW173250   5.693   8.131   5.759
20397SOL    HW273251   5.537   8.143   5.802
20398SOL     OW73252   7.127   8.282   5.953
20398SOL    HW173253   7.187   8.204   5.936
20398SOL    HW273254   7.146   8.354   5.886
20399SOL     OW73255   6.396   9.214   6.527
20399SOL    HW173256   6.437   9.128   6.498
20399SOL    HW273257   6.327   9.196   6.597
20400SOL     OW73258   6.295   8.295   5.622
20400SOL    HW173259   6.327   8.207   5.655
20400SOL    HW273260   6.195   8.295   5.618
20401SOL     OW73261   6.915   7.812   5.979
20401SOL    HW173262   6.868   7.880   5.924
20401SOL    HW273263   7.014   7.825   5.972
20402SOL     OW73264   5.836   8.038   7.034
20402SOL    HW173265   5.809   7.950   6.995
20402SOL    HW273266   5.813   8.038   7.132
20403SOL     OW73267   5.749   7.780   6.948
20403SOL    HW173268   5.804   7.751   6.870
20403SOL    HW273269   5.652   7.767   6.928
20404SOL     OW73270   6.599   8.180   6.700
20404SOL    HW173271   6.565   8.204   6.609
20404SOL    HW273272   6.523   8.178   6.765
20405SOL     OW73273   7.190   7.821   5.986
20405SOL    HW173274   7.281   7.784   5.971
20405SOL    HW273275   7.176   7.836   6.084
20406SOL     OW73276   6.449   8.949   6.471
20406SOL    HW173277   6.519   8.902   6.416
20406SOL    HW273278   6.363   8.950   6.421
20407SOL     OW73279   6.378   7.778   5.777
20407SOL    HW173280   6.303   7.765   5.841
20407SOL    HW273281   6.465   7.774   5.826
20408SOL     OW73282   6.527   8.682   5.708
20408SOL    HW173283   6.577   8.657   5.790
20408SOL    HW273284   6.588   8.677   5.629
20409SOL     OW73285   7.305   9.011   6.220
20409SOL    HW173286   7.261   9.096   6.250
20409SOL    HW273287   7.307   9.008   6.120
20410SOL     OW73288   6.737   8.300   6.166
20410SOL    HW173289   6.777   8.329   6.253
20410SOL    HW273290   6.645   8.336   6.157
20411SOL     OW73291   6.394   9.025   7.181
20411SOL    HW173292   6.352   8.969   7.109
20411SOL    HW273293   6.392   8.974   7.267
20412SOL     OW73294   6.889   8.383   6.387
20412SOL    HW173295   6.935   8.332   6.458
20412SOL    HW273296   6.893   8.481   6.408
20413SOL     OW73297   5.882   8.502   6.452
20413SOL    HW173298   5.807   8.440   6.430
20413SOL    HW273299   5.925   8.473   6.538
20414SOL     OW73300   6.481   8.395   6.103
20414SOL    HW173301   6.446   8.323   6.043
20414SOL    HW273302   6.408   8.426   6.164
20415SOL     OW73303   6.830   8.740   6.997
20415SOL    HW173304   6.868   8.829   7.023
20415SOL    HW273305   6.730   8.743   7.005
20416SOL     OW73306   5.591   7.696   5.989
20416SOL    HW173307   5.658   7.724   5.921
20416SOL    HW273308   5.634   7.694   6.079
20417SOL     OW73309   7.223   9.183   5.741
20417SOL    HW173310   7.307   9.237   5.736
20417SOL    HW273311   7.208   9.136   5.654
20418SOL     OW73312   6.416   8.163   6.908
20418SOL    HW173313   6.408   8.250   6.957
20418SOL    HW273314   6.451   8.093   6.971
20419SOL     OW73315   5.641   9.207   6.945
20419SOL    HW173316   5.574   9.278   6.926
20419SOL    HW273317   5.609   9.151   7.021
20420SOL     OW73318   6.355   8.199   5.950
20420SOL    HW173319   6.263   8.237   5.937
20420SOL    HW273320   6.384   8.154   5.865
20421SOL     OW73321   5.916   7.990   6.439
20421SOL    HW173322   5.977   7.931   6.386
20421SOL    HW273323   5.942   7.986   6.535
20422SOL     OW73324   5.891   9.095   5.829
20422SOL    HW173325   5.938   9.156   5.766
20422SOL    HW273326   5.872   9.144   5.914
20423SOL     OW73327   6.904   9.125   6.679
20423SOL    HW173328   6.919   9.162   6.587
20423SOL    HW273329   6.879   9.029   6.673
20424SOL     OW73330   6.251   7.435   5.965
20424SOL    HW173331   6.200   7.464   5.883
20424SOL    HW273332   6.299   7.514   6.003
20425SOL     OW73333   5.596   8.519   6.058
20425SOL    HW173334   5.678   8.575   6.070
20425SOL    HW273335   5.582   8.502   5.961
20426SOL     OW73336   7.125   7.697   7.044
20426SOL    HW173337   7.140   7.790   7.010
20426SOL    HW273338   7.151   7.692   7.140
20427SOL     OW73339   6.835   7.633   6.453
20427SOL    HW173340   6.846   7.693   6.374
20427SOL    HW273341   6.864   7.681   6.535
20428SOL     OW73342   6.980   7.434   5.699
20428SOL    HW173343   7.073   7.399   5.702
20428SOL    HW273344   6.916   7.358   5.715
20429SOL     OW73345   7.139   7.414   7.095
20429SOL    HW173346   7.126   7.356   7.014
20429SOL    HW273347   7.108   7.507   7.075
20430SOL     OW73348   6.274   7.666   6.239
20430SOL    HW173349   6.269   7.595   6.310
20430SOL    HW273350   6.361   7.716   6.249
20431SOL     OW73351   6.967   8.063   6.642
20431SOL    HW173352   7.027   8.123   6.589
20431SOL    HW273353   6.931   8.114   6.721
20432SOL     OW73354   7.115   7.431   5.997
20432SOL    HW173355   7.134   7.381   5.912
20432SOL    HW273356   7.022   7.467   5.994
20433SOL     OW73357   6.132   8.764   7.300
20433SOL    HW173358   6.083   8.832   7.245
20433SOL    HW273359   6.215   8.805   7.337
20434SOL     OW73360   6.011   8.519   7.208
20434SOL    HW173361   6.062   8.494   7.126
20434SOL    HW273362   6.039   8.610   7.239
20435SOL     OW73363   6.672   7.979   6.364
20435SOL    HW173364   6.757   7.939   6.331
20435SOL    HW273365   6.656   7.951   6.459
20436SOL     OW73366   7.304   8.062   7.165
20436SOL    HW173367   7.312   8.143   7.108
20436SOL    HW273368   7.395   8.031   7.191
20437SOL     OW73369   6.923   7.793   6.661
20437SOL    HW173370   6.939   7.891   6.649
20437SOL    HW273371   6.906   7.774   6.757
20438SOL     OW73372   7.111   7.895   7.289
20438SOL    HW173373   7.173   7.964   7.253
20438SOL    HW273374   7.163   7.826   7.339
20439SOL     OW73375   6.859   8.233   5.937
20439SOL    HW173376   6.811   8.257   6.021
20439SOL    HW273377   6.956   8.251   5.947
20440SOL     OW73378   7.116   8.337   6.220
20440SOL    HW173379   7.115   8.323   6.121
20440SOL    HW273380   7.022   8.338   6.255
20441SOL     OW73381   7.324   8.285   7.014
20441SOL    HW173382   7.285   8.327   6.932
20441SOL    HW273383   7.402   8.339   7.046
20442SOL     OW73384   7.134   7.679   5.706
20442SOL    HW173385   7.151   7.715   5.798
20442SOL    HW273386   7.066   7.607   5.711
20443SOL     OW73387   6.291   8.886   6.969
20443SOL    HW173388   6.226   8.961   6.956
20443SOL    HW273389   6.257   8.805   6.921
20444SOL     OW73390   5.731   7.712   7.220
20444SOL    HW173391   5.738   7.729   7.122
20444SOL    HW273392   5.650   7.657   7.239
20445SOL     OW73393   5.576   9.057   7.176
20445SOL    HW173394   5.662   9.074   7.223
20445SOL    HW273395   5.500   9.072   7.239
20446SOL     OW73396   5.700   7.681   6.243
20446SOL    HW173397   5.691   7.775   6.275
20446SOL    HW273398   5.780   7.639   6.286
20447SOL     OW73399   6.949   8.978   7.056
20447SOL    HW173400   6.878   9.040   7.089
20447SOL    HW273401   7.004   9.023   6.987
20448SOL     OW73402   5.836   8.031   5.788
20448SOL    HW173403   5.896   8.041   5.709
20448SOL    HW273404   5.879   8.074   5.868
20449SOL     OW73405   7.307   7.607   6.854
20449SOL    HW173406   7.238   7.635   6.921
20449SOL    HW273407   7.275   7.629   6.762
20450SOL     OW73408   5.963   9.176   6.280
20450SOL    HW173409   5.923   9.208   6.194
20450SOL    HW273410   5.973   9.076   6.276
20451SOL     OW73411   5.925   8.670   6.774
20451SOL    HW173412   5.904   8.702   6.866
20451SOL    HW273413   5.862   8.711   6.708
20452SOL     OW73414   6.716   8.986   7.370
20452SOL    HW173415   6.689   8.893   7.348
20452SOL    HW273416   6.728   9.038   7.286
20453SOL     OW73417   6.300   8.672   6.029
20453SOL    HW173418   6.316   8.614   5.949
20453SOL    HW273419   6.293   8.615   6.110
20454SOL     OW73420   5.967   8.214   6.295
20454SOL    HW173421   6.041   8.270   6.333
20454SOL    HW273422   5.960   8.129   6.348
20455SOL     OW73423   5.796   7.763   5.816
20455SOL    HW173424   5.838   7.723   5.735
20455SOL    HW273425   5.800   7.863   5.810
20456SOL     OW73426   5.667   7.932   6.334
20456SOL    HW173427   5.586   7.973   6.375
20456SOL    HW273428   5.749   7.962   6.383
20457SOL     OW73429   6.041   8.530   5.817
20457SOL    HW173430   6.141   8.532   5.813
20457SOL    HW273431   6.005   8.613   5.774
20458SOL     OW73432   6.667   8.084   5.597
20458SOL    HW173433   6.620   8.153   5.542
20458SOL    HW273434   6.724   8.026   5.538
20459SOL     OW73435   6.412   8.057   5.717
20459SOL    HW173436   6.506   8.062   5.682
20459SOL    HW273437   6.385   7.962   5.725
20460SOL     OW73438   6.864   7.546   6.001
20460SOL    HW173439   6.780   7.538   6.055
20460SOL    HW273440   6.888   7.642   5.990
20461SOL     OW73441   6.896   7.995   7.013
20461SOL    HW173442   6.874   7.998   7.111
20461SOL    HW273443   6.871   7.905   6.976
20462SOL     OW73444   5.673   7.388   5.680
20462SOL    HW173445   5.717   7.360   5.765
20462SOL    HW273446   5.714   7.474   5.649
20463SOL     OW73447   5.975   8.408   6.695
20463SOL    HW173448   5.933   8.343   6.759
20463SOL    HW273449   5.965   8.501   6.730
20464SOL     OW73450   7.198   8.444   5.747
20464SOL    HW173451   7.296   8.457   5.762
20464SOL    HW273452   7.180   8.431   5.649
20465SOL     OW73453   6.208   8.074   6.722
20465SOL    HW173454   6.249   8.113   6.804
20465SOL    HW273455   6.111   8.056   6.739
20466SOL     OW73456   6.417   8.402   7.056
20466SOL    HW173457   6.459   8.457   6.984
20466SOL    HW273458   6.389   8.461   7.131
20467SOL     OW73459   6.694   8.464   7.283
20467SOL    HW173460   6.623   8.396   7.303
20467SOL    HW273461   6.773   8.420   7.242
20468SOL     OW73462   6.627   7.631   6.148
20468SOL    HW173463   6.578   7.714   6.173
20468SOL    HW273464   6.620   7.564   6.222
20469SOL     OW73465   6.751   9.140   7.146
20469SOL    HW173466   6.681   9.164   7.078
20469SOL    HW273467   6.783   9.223   7.192
20470SOL     OW73468   6.226   7.486   6.443
20470SOL    HW173469   6.169   7.417   6.398
20470SOL    HW273470   6.303   7.441   6.488
20471SOL     OW73471   5.891   9.199   6.840
20471SOL    HW173472   5.887   9.155   6.750
20471SOL    HW273473   5.801   9.198   6.882
20472SOL     OW73474   6.508   8.591   6.406
20472SOL    HW173475   6.554   8.673   6.373
20472SOL    HW273476   6.573   8.516   6.412
20473SOL     OW73477   6.176   8.346   6.480
20473SOL    HW173478   6.216   8.256   6.464
20473SOL    HW273479   6.114   8.341   6.558
20474SOL     OW73480   5.778   7.366   5.953
20474SOL    HW173481   5.838   7.444   5.968
20474SOL    HW273482   5.684   7.391   5.977
20475SOL     OW73483   6.236   8.012   7.182
20475SOL    HW173484   6.188   8.063   7.109
20475SOL    HW273485   6.331   8.000   7.156
20476SOL     OW73486   5.596   8.468   5.788
20476SOL    HW173487   5.617   8.372   5.771
20476SOL    HW273488   5.653   8.526   5.730
20477SOL     OW73489   7.281   7.632   6.375
20477SOL    HW173490   7.254   7.652   6.469
20477SOL    HW273491   7.381   7.624   6.370
20478SOL     OW73492   6.335   8.548   6.619
20478SOL    HW173493   6.280   8.473   6.581
20478SOL    HW273494   6.400   8.579   6.551
20479SOL     OW73495   6.761   7.996   5.846
20479SOL    HW173496   6.794   8.081   5.889
20479SOL    HW273497   6.727   8.017   5.754
20480SOL     OW73498   7.107   8.837   7.227
20480SOL    HW173499   7.070   8.748   7.256
20480SOL    HW273500   7.041   8.882   7.166
20481SOL     OW73501   5.809   8.271   6.887
20481SOL    HW173502   5.814   8.181   6.931
20481SOL    HW273503   5.789   8.341   6.956
20482SOL     OW73504   6.381   8.885   5.590
20482SOL    HW173505   6.332   8.943   5.656
20482SOL    HW273506   6.438   8.820   5.640
20483SOL     OW73507   6.172   9.048   6.606
20483SOL    HW173508   6.177   9.028   6.508
20483SOL    HW273509   6.190   8.964   6.657
20484SOL     OW73510   6.279   8.515   6.275
20484SOL    HW173511   6.359   8.556   6.319
20484SOL    HW273512   6.236   8.450   6.338
20485SOL     OW73513   6.493   8.881   6.071
20485SOL    HW173514   6.551   8.903   5.993
20485SOL    HW273515   6.433   8.804   6.047
20486SOL     OW73516   5.725   8.276   6.409
20486SOL    HW173517   5.811   8.251   6.364
20486SOL    HW273518   5.652   8.283   6.341
20487SOL     OW73519   5.652   8.313   7.332
20487SOL    HW173520   5.553   8.329   7.329
20487SOL    HW273521   5.680   8.298   7.426
20488SOL     OW73522   6.519   9.164   6.973
20488SOL    HW173523   6.485   9.107   7.048
20488SOL    HW273524   6.452   9.236   6.952
20489SOL     OW73525   6.104   7.782   7.346
20489SOL    HW173526   6.167   7.771   7.270
20489SOL    HW273527   6.100   7.878   7.373
20490SOL     OW73528   6.101   8.285   5.930
20490SOL    HW173529   6.068   8.373   5.897
20490SOL    HW273530   6.024   8.232   5.966
20491SOL     OW73531   7.130   8.306   6.552
20491SOL    HW173532   7.153   8.382   6.492
20491SOL    HW273533   7.158   8.328   6.645
20492SOL     OW73534   6.874   7.730   6.925
20492SOL    HW173535   6.957   7.705   6.974
20492SOL    HW273536   6.817   7.648   6.912
20493SOL     OW73537   5.514   7.434   6.002
20493SOL    HW173538   5.414   7.429   6.008
20493SOL    HW273539   5.541   7.530   5.994
20494SOL     OW73540   6.850   7.527   7.283
20494SOL    HW173541   6.865   7.515   7.381
20494SOL    HW273542   6.793   7.608   7.268
20495SOL     OW73543   6.001   8.966   7.166
20495SOL    HW173544   5.934   9.021   7.215
20495SOL    HW273545   6.050   9.025   7.101
20496SOL     OW73546   7.335   8.845   7.076
20496SOL    HW173547   7.381   8.933   7.093
20496SOL    HW273548   7.252   8.840   7.130
20497SOL     OW73549   6.608   7.914   6.624
20497SOL    HW173550   6.616   8.006   6.662
20497SOL    HW273551   6.677   7.855   6.666
20498SOL     OW73552   5.973   8.899   6.202
20498SOL    HW173553   5.986   8.803   6.226
20498SOL    HW273554   5.884   8.912   6.159
20499SOL     OW73555   6.588   8.960   6.711
20499SOL    HW173556   6.543   9.008   6.787
20499SOL    HW273557   6.526   8.958   6.632
20500SOL     OW73558   5.818   9.126   7.308
20500SOL    HW173559   5.845   9.221   7.298
20500SOL    HW273560   5.818   9.101   7.405
20501SOL     OW73561   5.689   8.675   7.202
20501SOL    HW173562   5.693   8.581   7.166
20501SOL    HW273563   5.601   8.716   7.178
20502SOL     OW73564   6.599   7.501   6.385
20502SOL    HW173565   6.679   7.546   6.425
20502SOL    HW273566   6.544   7.461   6.458
20503SOL     OW73567   6.625   8.594   5.953
20503SOL    HW173568   6.717   8.607   5.989
20503SOL    HW273569   6.578   8.522   6.004
20504SOL     OW73570   7.163   7.856   6.263
20504SOL    HW173571   7.188   7.933   6.322
20504SOL    HW273572   7.206   7.772   6.297
20505SOL     OW73573   6.315   8.526   5.788
20505SOL    HW173574   6.388   8.586   5.755
20505SOL    HW273575   6.322   8.437   5.742
20506SOL     OW73576   6.404   7.557   5.603
20506SOL    HW173577   6.453   7.480   5.646
20506SOL    HW273578   6.402   7.634   5.666
20507SOL     OW73579   6.084   7.863   6.273
20507SOL    HW173580   6.140   7.780   6.277
20507SOL    HW273581   6.126   7.928   6.210
20508SOL     OW73582   6.150   8.443   6.985
20508SOL    HW173583   6.241   8.412   7.011
20508SOL    HW273584   6.158   8.524   6.926
20509SOL     OW73585   7.258   8.425   6.781
20509SOL    HW173586   7.257   8.523   6.805
20509SOL    HW273587   7.342   8.403   6.733
20510SOL     OW73588   5.758   8.627   5.628
20510SOL    HW173589   5.760   8.627   5.528
20510SOL    HW273590   5.829   8.688   5.664
20511SOL     OW73591   6.213   9.024   5.753
20511SOL    HW173592   6.149   9.098   5.733
20511SOL    HW273593   6.180   8.972   5.833
20512SOL     OW73594   6.123   9.112   6.964
20512SOL    HW173595   6.187   9.189   6.964
20512SOL    HW273596   6.039   9.139   6.916
20513SOL     OW73597   5.751   7.977   7.298
20513SOL    HW173598   5.748   7.879   7.279
20513SOL    HW273599   5.794   7.991   7.387
20514SOL     OW73600   7.176   8.893   6.606
20514SOL    HW173601   7.236   8.960   6.650
20514SOL    HW273602   7.121   8.847   6.675
20515SOL     OW73603   5.552   8.292   6.202
20515SOL    HW173604   5.570   8.375   6.149
20515SOL    HW273605   5.453   8.282   6.215
20516SOL     OW73606   6.092   8.157   7.003
20516SOL    HW173607   6.000   8.118   7.007
20516SOL    HW273608   6.086   8.256   6.988
20517SOL     OW73609   7.188   8.540   6.398
20517SOL    HW173610   7.169   8.637   6.384
20517SOL    HW273611   7.165   8.490   6.314
20518SOL     OW73612   6.325   7.901   6.556
20518SOL    HW173613   6.423   7.890   6.574
20518SOL    HW273614   6.285   7.964   6.622
20519SOL     OW73615   6.193   8.671   6.822
20519SOL    HW173616   6.097   8.677   6.797
20519SOL    HW273617   6.245   8.634   6.745
20520SOL     OW73618   5.717   8.151   6.656
20520SOL    HW173619   5.738   8.211   6.733
20520SOL    HW273620   5.721   8.203   6.570
20521SOL     OW73621   5.875   8.769   7.020
20521SOL    HW173622   5.925   8.844   7.063
20521SOL    HW273623   5.808   8.732   7.085
20522SOL     OW73624   7.199   9.082   7.330
20522SOL    HW173625   7.167   8.989   7.315
20522SOL    HW273626   7.170   9.140   7.254
20523SOL     OW73627   6.895   8.624   6.022
20523SOL    HW173628   6.987   8.627   6.061
20523SOL    HW273629   6.901   8.612   5.923
20524SOL     OW73630   6.197   7.746   5.990
20524SOL    HW173631   6.122   7.692   5.951
20524SOL    HW273632   6.220   7.711   6.080
20525SOL     OW73633   7.153   7.410   6.270
20525SOL    HW173634   7.133   7.422   6.173
20525SOL    HW273635   7.201   7.490   6.305
20526SOL     OW73636   6.282   8.108   6.373
20526SOL    HW173637   6.290   8.028   6.433
20526SOL    HW273638   6.273   8.077   6.278
20527SOL     OW73639   6.828   8.866   6.624
20527SOL    HW173640   6.736   8.888   6.657
20527SOL    HW273641   6.832   8.877   6.525
20528SOL     OW73642   6.887   7.829   6.260
20528SOL    HW173643   6.870   7.818   6.162
20528SOL    HW273644   6.984   7.845   6.275
20529SOL     OW73645   6.632   8.832   8.123
20529SOL    HW173646   6.727   8.864   8.130
20529SOL    HW273647   6.597   8.853   8.032
20530SOL     OW73648   7.136   8.685   7.928
20530SOL    HW173649   7.146   8.734   8.015
20530SOL    HW273650   7.227   8.668   7.889
20531SOL     OW73651   7.170   8.050   8.767
20531SOL    HW173652   7.102   7.998   8.818
20531SOL    HW273653   7.222   8.108   8.830
20532SOL     OW73654   5.921   7.589   7.374
20532SOL    HW173655   5.845   7.618   7.316
20532SOL    HW273656   5.997   7.654   7.364
20533SOL     OW73657   6.889   8.927   8.203
20533SOL    HW173658   6.902   9.025   8.221
20533SOL    HW273659   6.978   8.884   8.190
20534SOL     OW73660   6.701   7.497   8.704
20534SOL    HW173661   6.627   7.444   8.745
20534SOL    HW273662   6.756   7.438   8.645
20535SOL     OW73663   6.515   8.295   9.120
20535SOL    HW173664   6.483   8.299   9.026
20535SOL    HW273665   6.437   8.306   9.182
20536SOL     OW73666   6.100   8.863   7.793
20536SOL    HW173667   6.054   8.887   7.878
20536SOL    HW273668   6.176   8.801   7.813
20537SOL     OW73669   6.085   7.431   7.533
20537SOL    HW173670   6.179   7.466   7.535
20537SOL    HW273671   6.029   7.491   7.475
20538SOL     OW73672   7.153   8.460   8.925
20538SOL    HW173673   7.057   8.470   8.899
20538SOL    HW273674   7.210   8.507   8.857
20539SOL     OW73675   6.993   8.444   8.603
20539SOL    HW173676   6.951   8.451   8.693
20539SOL    HW273677   7.018   8.535   8.570
20540SOL     OW73678   6.509   8.745   8.849
20540SOL    HW173679   6.427   8.802   8.840
20540SOL    HW273680   6.505   8.670   8.783
20541SOL     OW73681   6.009   8.601   8.076
20541SOL    HW173682   5.958   8.548   8.144
20541SOL    HW273683   6.105   8.576   8.079
20542SOL     OW73684   6.285   8.014   7.957
20542SOL    HW173685   6.309   8.088   7.894
20542SOL    HW273686   6.239   7.941   7.906
20543SOL     OW73687   6.790   7.923   9.120
20543SOL    HW173688   6.886   7.909   9.147
20543SOL    HW273689   6.737   7.843   9.146
20544SOL     OW73690   5.974   8.779   7.550
20544SOL    HW173691   6.029   8.796   7.468
20544SOL    HW273692   6.017   8.822   7.629
20545SOL     OW73693   6.169   7.709   8.417
20545SOL    HW173694   6.227   7.787   8.393
20545SOL    HW273695   6.197   7.629   8.364
20546SOL     OW73696   5.868   8.170   7.851
20546SOL    HW173697   5.781   8.126   7.876
20546SOL    HW273698   5.913   8.204   7.934
20547SOL     OW73699   6.340   9.078   8.000
20547SOL    HW173700   6.401   9.010   7.959
20547SOL    HW273701   6.317   9.148   7.933
20548SOL     OW73702   7.305   8.990   7.780
20548SOL    HW173703   7.397   8.954   7.763
20548SOL    HW273704   7.279   9.052   7.706
20549SOL     OW73705   7.230   7.745   8.512
20549SOL    HW173706   7.267   7.837   8.522
20549SOL    HW273707   7.130   7.748   8.511
20550SOL     OW73708   6.600   7.758   7.748
20550SOL    HW173709   6.659   7.839   7.746
20550SOL    HW273710   6.612   7.711   7.835
20551SOL     OW73711   5.759   8.451   8.984
20551SOL    HW173712   5.848   8.487   9.013
20551SOL    HW273713   5.719   8.398   9.059
20552SOL     OW73714   6.077   8.069   7.393
20552SOL    HW173715   6.059   8.167   7.398
20552SOL    HW273716   6.138   8.050   7.316
20553SOL     OW73717   6.196   8.970   8.200
20553SOL    HW173718   6.250   9.020   8.131
20553SOL    HW273719   6.115   8.931   8.156
20554SOL     OW73720   6.550   8.030   8.941
20554SOL    HW173721   6.604   7.969   8.999
20554SOL    HW273722   6.611   8.090   8.890
20555SOL     OW73723   7.158   8.816   8.194
20555SOL    HW173724   7.178   8.838   8.290
20555SOL    HW273725   7.206   8.880   8.135
20556SOL     OW73726   5.859   8.633   7.845
20556SOL    HW173727   5.910   8.624   7.930
20556SOL    HW273728   5.912   8.593   7.770
20557SOL     OW73729   6.647   7.644   7.507
20557SOL    HW173730   6.703   7.563   7.523
20557SOL    HW273731   6.627   7.688   7.594
20558SOL     OW73732   5.911   7.925   8.649
20558SOL    HW173733   5.909   7.841   8.595
20558SOL    HW273734   5.837   7.985   8.619
20559SOL     OW73735   6.954   8.179   8.662
20559SOL    HW173736   6.975   8.273   8.637
20559SOL    HW273737   7.037   8.135   8.698
20560SOL     OW73738   5.925   7.700   7.848
20560SOL    HW173739   5.855   7.728   7.914
20560SOL    HW273740   5.891   7.716   7.755
20561SOL     OW73741   7.059   9.097   8.737
20561SOL    HW173742   7.001   9.126   8.660
20561SOL    HW273743   7.127   9.032   8.704
20562SOL     OW73744   7.319   8.004   8.547
20562SOL    HW173745   7.404   8.055   8.554
20562SOL    HW273746   7.263   8.019   8.628
20563SOL     OW73747   7.432   9.086   8.495
20563SOL    HW173748   7.433   9.111   8.592
20563SOL    HW273749   7.525   9.090   8.459
20564SOL     OW73750   6.493   7.859   8.049
20564SOL    HW173751   6.558   7.904   8.110
20564SOL    HW273752   6.427   7.926   8.015
20565SOL     OW73753   6.823   8.313   7.532
20565SOL    HW173754   6.836   8.282   7.626
20565SOL    HW273755   6.776   8.242   7.479
20566SOL     OW73756   6.639   7.709   9.199
20566SOL    HW173757   6.661   7.691   9.295
20566SOL    HW273758   6.546   7.677   9.180
20567SOL     OW73759   7.297   8.062   7.744
20567SOL    HW173760   7.251   7.977   7.771
20567SOL    HW273761   7.364   8.087   7.813
20568SOL     OW73762   6.549   9.157   7.533
20568SOL    HW173763   6.590   9.108   7.455
20568SOL    HW273764   6.569   9.107   7.617
20569SOL     OW73765   6.291   7.444   9.104
20569SOL    HW173766   6.327   7.353   9.085
20569SOL    HW273767   6.330   7.478   9.190
20570SOL     OW73768   7.231   8.078   8.300
20570SOL    HW173769   7.168   8.155   8.306
20570SOL    HW273770   7.256   8.048   8.393
20571SOL     OW73771   6.624   8.727   9.119
20571SOL    HW173772   6.672   8.639   9.113
20571SOL    HW273773   6.568   8.739   9.036
20572SOL     OW73774   6.314   8.546   9.104
20572SOL    HW173775   6.259   8.629   9.116
20572SOL    HW273776   6.312   8.492   9.188
20573SOL     OW73777   6.902   7.397   8.280
20573SOL    HW173778   6.855   7.485   8.290
20573SOL    HW273779   6.989   7.412   8.233
20574SOL     OW73780   7.271   7.608   9.157
20574SOL    HW173781   7.226   7.640   9.241
20574SOL    HW273782   7.252   7.510   9.145
20575SOL     OW73783   5.638   8.080   7.954
20575SOL    HW173784   5.607   8.010   8.019
20575SOL    HW273785   5.588   8.165   7.971
20576SOL     OW73786   5.898   7.618   8.187
20576SOL    HW173787   5.955   7.700   8.180
20576SOL    HW273788   5.951   7.538   8.158
20577SOL     OW73789   5.904   7.718   8.464
20577SOL    HW173790   5.866   7.657   8.394
20577SOL    HW273791   6.004   7.717   8.458
20578SOL     OW73792   6.662   8.191   8.345
20578SOL    HW173793   6.716   8.262   8.298
20578SOL    HW273794   6.650   8.113   8.284
20579SOL     OW73795   5.744   8.893   7.782
20579SOL    HW173796   5.780   8.801   7.798
20579SOL    HW273797   5.791   8.933   7.703
20580SOL     OW73798   6.962   8.733   8.627
20580SOL    HW173799   6.915   8.769   8.547
20580SOL    HW273800   6.898   8.729   8.704
20581SOL     OW73801   5.733   8.988   8.048
20581SOL    HW173802   5.637   8.993   8.075
20581SOL    HW273803   5.739   8.969   7.950
20582SOL     OW73804   7.199   8.845   8.703
20582SOL    HW173805   7.223   8.845   8.800
20582SOL    HW273806   7.111   8.800   8.691
20583SOL     OW73807   6.047   8.342   7.414
20583SOL    HW173808   6.028   8.398   7.333
20583SOL    HW273809   6.014   8.389   7.496
20584SOL     OW73810   6.485   8.536   8.666
20584SOL    HW173811   6.523   8.447   8.638
20584SOL    HW273812   6.424   8.569   8.594
20585SOL     OW73813   5.725   8.254   7.601
20585SOL    HW173814   5.755   8.262   7.696
20585SOL    HW273815   5.754   8.166   7.565
20586SOL     OW73816   7.119   8.269   7.782
20586SOL    HW173817   7.179   8.190   7.770
20586SOL    HW273818   7.130   8.332   7.705
20587SOL     OW73819   6.460   9.172   8.428
20587SOL    HW173820   6.466   9.090   8.371
20587SOL    HW273821   6.366   9.182   8.461
20588SOL     OW73822   6.315   8.296   7.459
20588SOL    HW173823   6.336   8.206   7.498
20588SOL    HW273824   6.216   8.302   7.445
20589SOL     OW73825   6.916   7.799   7.828
20589SOL    HW173826   6.871   7.867   7.770
20589SOL    HW273827   7.014   7.819   7.831
20590SOL     OW73828   5.883   8.068   8.884
20590SOL    HW173829   5.891   8.000   8.811
20590SOL    HW273830   5.833   8.029   8.961
20591SOL     OW73831   6.555   8.287   8.580
20591SOL    HW173832   6.586   8.253   8.492
20591SOL    HW273833   6.482   8.228   8.615
20592SOL     OW73834   7.187   7.832   7.859
20592SOL    HW173835   7.269   7.778   7.840
20592SOL    HW273836   7.179   7.846   7.957
20593SOL     OW73837   6.455   8.939   8.300
20593SOL    HW173838   6.522   8.900   8.236
20593SOL    HW273839   6.363   8.932   8.260
20594SOL     OW73840   6.359   7.790   7.633
20594SOL    HW173841   6.286   7.780   7.701
20594SOL    HW273842   6.448   7.779   7.677
20595SOL     OW73843   6.513   8.693   7.538
20595SOL    HW173844   6.564   8.668   7.620
20595SOL    HW273845   6.575   8.697   7.460
20596SOL     OW73846   7.283   9.003   8.048
20596SOL    HW173847   7.243   9.090   8.078
20596SOL    HW273848   7.283   8.999   7.948
20597SOL     OW73849   6.730   8.317   7.989
20597SOL    HW173850   6.758   8.345   8.081
20597SOL    HW273851   6.638   8.352   7.971
20598SOL     OW73852   6.376   9.026   9.020
20598SOL    HW173853   6.330   8.966   8.955
20598SOL    HW273854   6.382   8.981   9.109
20599SOL     OW73855   6.832   8.379   8.236
20599SOL    HW173856   6.918   8.346   8.274
20599SOL    HW273857   6.798   8.455   8.292
20600SOL     OW73858   5.862   8.457   8.261
20600SOL    HW173859   5.771   8.497   8.250
20600SOL    HW273860   5.882   8.446   8.358
20601SOL     OW73861   6.474   8.403   7.923
20601SOL    HW173862   6.433   8.331   7.867
20601SOL    HW273863   6.407   8.436   7.990
20602SOL     OW73864   6.786   8.739   8.834
20602SOL    HW173865   6.827   8.820   8.876
20602SOL    HW273866   6.686   8.744   8.842
20603SOL     OW73867   5.633   7.624   7.766
20603SOL    HW173868   5.689   7.679   7.704
20603SOL    HW273869   5.638   7.662   7.858
20604SOL     OW73870   7.229   9.180   7.590
20604SOL    HW173871   7.316   9.229   7.583
20604SOL    HW273872   7.207   9.139   7.502
20605SOL     OW73873   6.378   8.150   8.749
20605SOL    HW173874   6.358   8.233   8.802
20605SOL    HW273875   6.433   8.088   8.804
20606SOL     OW73876   5.622   9.233   8.803
20606SOL    HW173877   5.571   9.319   8.801
20606SOL    HW273878   5.603   9.185   8.888
20607SOL     OW73879   6.343   8.209   7.776
20607SOL    HW173880   6.249   8.236   7.756
20607SOL    HW273881   6.380   8.157   7.699
20608SOL     OW73882   5.801   7.914   8.288
20608SOL    HW173883   5.880   7.905   8.227
20608SOL    HW273884   5.818   7.862   8.372
20609SOL     OW73885   5.843   9.127   7.591
20609SOL    HW173886   5.932   9.162   7.560
20609SOL    HW273887   5.829   9.152   7.687
20610SOL     OW73888   6.879   9.159   8.541
20610SOL    HW173889   6.907   9.170   8.445
20610SOL    HW273890   6.797   9.101   8.545
20611SOL     OW73891   5.601   8.580   8.309
20611SOL    HW173892   5.513   8.582   8.262
20611SOL    HW273893   5.597   8.513   8.384
20612SOL     OW73894   6.279   7.482   7.808
20612SOL    HW173895   6.306   7.476   7.711
20612SOL    HW273896   6.247   7.574   7.829
20613SOL     OW73897   5.603   8.531   7.865
20613SOL    HW173898   5.693   8.574   7.873
20613SOL    HW273899   5.582   8.516   7.768
20614SOL     OW73900   7.142   7.698   8.931
20614SOL    HW173901   7.091   7.784   8.931
20614SOL    HW273902   7.186   7.685   9.020
20615SOL     OW73903   6.804   7.651   8.318
20615SOL    HW173904   6.830   7.701   8.235
20615SOL    HW273905   6.857   7.684   8.395
20616SOL     OW73906   6.871   7.474   7.566
20616SOL    HW173907   6.879   7.375   7.556
20616SOL    HW273908   6.850   7.497   7.661
20617SOL     OW73909   7.138   7.419   8.944
20617SOL    HW173910   7.109   7.373   8.860
20617SOL    HW273911   7.128   7.518   8.934
20618SOL     OW73912   6.266   7.715   8.105
20618SOL    HW173913   6.267   7.630   8.158
20618SOL    HW273914   6.358   7.755   8.104
20619SOL     OW73915   6.812   8.013   8.503
20619SOL    HW173916   6.767   8.074   8.438
20619SOL    HW273917   6.866   8.067   8.567
20620SOL     OW73918   7.088   7.432   7.837
20620SOL    HW173919   7.097   7.378   7.753
20620SOL    HW273920   6.993   7.464   7.846
20621SOL     OW73921   6.144   8.784   9.141
20621SOL    HW173922   6.098   8.854   9.086
20621SOL    HW273923   6.225   8.823   9.183
20622SOL     OW73924   6.006   8.544   9.055
20622SOL    HW173925   6.049   8.521   8.968
20622SOL    HW273926   6.038   8.633   9.086
20623SOL     OW73927   5.653   8.782   8.493
20623SOL    HW173928   5.639   8.721   8.415
20623SOL    HW273929   5.574   8.777   8.554
20624SOL     OW73930   6.677   7.948   8.223
20624SOL    HW173931   6.761   7.907   8.187
20624SOL    HW273932   6.649   7.898   8.305
20625SOL     OW73933   7.287   8.010   9.109
20625SOL    HW173934   7.293   8.088   9.046
20625SOL    HW273935   7.379   7.987   9.141
20626SOL     OW73936   6.952   7.774   8.520
20626SOL    HW173937   6.909   7.863   8.509
20626SOL    HW273938   6.930   7.738   8.611
20627SOL     OW73939   7.054   7.880   9.179
20627SOL    HW173940   7.137   7.928   9.152
20627SOL    HW273941   7.076   7.813   9.251
20628SOL     OW73942   6.855   8.205   7.782
20628SOL    HW173943   6.807   8.245   7.859
20628SOL    HW273944   6.953   8.226   7.788
20629SOL     OW73945   7.077   8.381   8.028
20629SOL    HW173946   7.088   8.342   7.937
20629SOL    HW273947   6.980   8.396   8.047
20630SOL     OW73948   7.300   8.226   8.927
20630SOL    HW173949   7.240   8.306   8.922
20630SOL    HW273950   7.395   8.257   8.929
20631SOL     OW73951   7.123   7.605   7.544
20631SOL    HW173952   7.143   7.665   7.622
20631SOL    HW273953   7.028   7.574   7.549
20632SOL     OW73954   6.262   8.886   8.810
20632SOL    HW173955   6.205   8.966   8.793
20632SOL    HW273956   6.228   8.809   8.757
20633SOL     OW73957   5.587   9.083   9.031
20633SOL    HW173958   5.674   9.095   9.079
20633SOL    HW273959   5.512   9.087   9.097
20634SOL     OW73960   5.699   7.715   8.020
20634SOL    HW173961   5.639   7.783   8.062
20634SOL    HW273962   5.757   7.674   8.090
20635SOL     OW73963   6.905   8.967   8.923
20635SOL    HW173964   6.833   9.029   8.954
20635SOL    HW273965   6.961   9.013   8.854
20636SOL     OW73966   5.874   8.011   7.563
20636SOL    HW173967   5.955   8.029   7.507
20636SOL    HW273968   5.892   8.038   7.657
20637SOL     OW73969   7.342   7.644   8.748
20637SOL    HW173970   7.271   7.665   8.816
20637SOL    HW273971   7.309   7.672   8.657
20638SOL     OW73972   5.918   9.192   8.105
20638SOL    HW173973   5.849   9.119   8.102
20638SOL    HW273974   5.949   9.213   8.012
20639SOL     OW73975   5.895   8.706   8.608
20639SOL    HW173976   5.895   8.738   8.703
20639SOL    HW273977   5.813   8.739   8.561
20640SOL     OW73978   6.686   8.978   9.222
20640SOL    HW173979   6.664   8.885   9.193
20640SOL    HW273980   6.692   9.038   9.142
20641SOL     OW73981   6.296   8.678   7.859
20641SOL    HW173982   6.310   8.617   7.781
20641SOL    HW273983   6.293   8.625   7.944
20642SOL     OW73984   5.971   8.252   8.092
20642SOL    HW173985   5.932   8.322   8.152
20642SOL    HW273986   6.048   8.208   8.139
20643SOL     OW73987   5.821   7.741   7.599
20643SOL    HW173988   5.852   7.685   7.522
20643SOL    HW273989   5.833   7.837   7.577
20644SOL     OW73990   5.562   7.915   8.158
20644SOL    HW173991   5.488   7.965   8.203
20644SOL    HW273992   5.643   7.917   8.217
20645SOL     OW73993   6.038   8.530   7.638
20645SOL    HW173994   6.138   8.534   7.638
20645SOL    HW273995   6.001   8.613   7.597
20646SOL     OW73996   6.670   8.091   7.428
20646SOL    HW173997   6.617   8.152   7.369
20646SOL    HW273998   6.737   8.041   7.373
20647SOL     OW73999   6.417   8.057   7.558
20647SOL    HW174000   6.510   8.056   7.522
20647SOL    HW274001   6.386   7.963   7.571
20648SOL     OW74002   6.832   7.542   7.829
20648SOL    HW174003   6.753   7.537   7.890
20648SOL    HW274004   6.867   7.636   7.828
20649SOL     OW74005   6.964   7.917   8.884
20649SOL    HW174006   6.905   7.947   8.959
20649SOL    HW274007   6.919   7.844   8.833
20650SOL     OW74008   5.613   7.439   7.569
20650SOL    HW174009   5.699   7.388   7.577
20650SOL    HW274010   5.606   7.505   7.643
20651SOL     OW74011   5.901   8.441   8.536
20651SOL    HW174012   5.896   8.384   8.618
20651SOL    HW274013   5.908   8.537   8.563
20652SOL     OW74014   7.174   8.419   7.565
20652SOL    HW174015   7.271   8.444   7.572
20652SOL    HW274016   7.141   8.441   7.473
20653SOL     OW74017   6.175   8.035   8.587
20653SOL    HW174018   6.228   8.079   8.659
20653SOL    HW274019   6.088   8.004   8.623
20654SOL     OW74020   6.388   8.400   8.888
20654SOL    HW174021   6.435   8.454   8.818
20654SOL    HW274022   6.370   8.458   8.967
20655SOL     OW74023   6.720   8.473   9.092
20655SOL    HW174024   6.643   8.410   9.103
20655SOL    HW274025   6.804   8.428   9.121
20656SOL     OW74026   6.617   7.623   7.996
20656SOL    HW174027   6.572   7.711   8.015
20656SOL    HW274028   6.601   7.561   8.073
20657SOL     OW74029   6.712   9.138   9.003
20657SOL    HW174030   6.637   9.154   8.939
20657SOL    HW274031   6.759   9.225   9.021
20658SOL     OW74032   6.232   7.494   8.259
20658SOL    HW174033   6.164   7.446   8.204
20658SOL    HW274034   6.301   7.429   8.291
20659SOL     OW74035   5.854   9.185   8.663
20659SOL    HW174036   5.823   9.134   8.583
20659SOL    HW274037   5.776   9.202   8.724
20660SOL     OW74038   6.511   8.617   8.239
20660SOL    HW174039   6.550   8.695   8.189
20660SOL    HW274040   6.581   8.577   8.298
20661SOL     OW74041   6.188   8.364   8.319
20661SOL    HW174042   6.205   8.272   8.285
20661SOL    HW274043   6.111   8.362   8.383
20662SOL     OW74044   5.622   8.398   8.510
20662SOL    HW174045   5.717   8.415   8.538
20662SOL    HW274046   5.620   8.321   8.446
20663SOL     OW74047   5.843   7.434   7.879
20663SOL    HW174048   5.890   7.522   7.866
20663SOL    HW274049   5.745   7.451   7.888
20664SOL     OW74050   6.293   8.058   9.057
20664SOL    HW174051   6.239   8.113   8.994
20664SOL    HW274052   6.385   8.046   9.019
20665SOL     OW74053   5.566   8.485   7.599
20665SOL    HW174054   5.612   8.396   7.598
20665SOL    HW274055   5.622   8.552   7.551
20666SOL     OW74056   7.310   7.660   8.263
20666SOL    HW174057   7.280   7.682   8.356
20666SOL    HW274058   7.410   7.656   8.260
20667SOL     OW74059   6.321   8.581   8.443
20667SOL    HW174060   6.277   8.500   8.405
20667SOL    HW274061   6.385   8.619   8.376
20668SOL     OW74062   6.761   7.975   7.679
20668SOL    HW174063   6.793   8.058   7.726
20668SOL    HW274064   6.730   7.999   7.587
20669SOL     OW74065   7.072   8.874   9.116
20669SOL    HW174066   7.041   8.790   9.161
20669SOL    HW274067   7.003   8.904   9.050
20670SOL     OW74068   5.811   8.300   8.760
20670SOL    HW174069   5.838   8.213   8.802
20670SOL    HW274070   5.790   8.367   8.831
20671SOL     OW74071   6.353   8.878   7.410
20671SOL    HW174072   6.303   8.933   7.476
20671SOL    HW274073   6.415   8.816   7.458
20672SOL     OW74074   6.186   9.096   8.446
20672SOL    HW174075   6.190   9.035   8.368
20672SOL    HW274076   6.144   9.049   8.524
20673SOL     OW74077   6.290   8.521   8.107
20673SOL    HW174078   6.370   8.565   8.148
20673SOL    HW274079   6.249   8.458   8.172
20674SOL     OW74080   6.496   8.880   7.888
20674SOL    HW174081   6.561   8.892   7.813
20674SOL    HW274082   6.435   8.804   7.867
20675SOL     OW74083   5.651   8.198   8.328
20675SOL    HW174084   5.712   8.179   8.251
20675SOL    HW274085   5.559   8.164   8.307
20676SOL     OW74086   5.626   8.311   9.181
20676SOL    HW174087   5.568   8.291   9.102
20676SOL    HW274088   5.610   8.242   9.252
20677SOL     OW74089   6.504   9.174   8.824
20677SOL    HW174090   6.459   9.117   8.892
20677SOL    HW274091   6.438   9.239   8.786
20678SOL     OW74092   6.721   8.558   8.412
20678SOL    HW174093   6.745   8.655   8.419
20678SOL    HW274094   6.716   8.518   8.503
20679SOL     OW74095   6.001   7.812   9.130
20679SOL    HW174096   6.068   7.765   9.073
20679SOL    HW274097   6.038   7.900   9.159
20680SOL     OW74098   6.086   8.274   7.726
20680SOL    HW174099   6.062   8.368   7.704
20680SOL    HW274100   6.009   8.230   7.772
20681SOL     OW74101   7.072   8.314   8.362
20681SOL    HW174102   7.119   8.388   8.313
20681SOL    HW274103   7.050   8.345   8.454
20682SOL     OW74104   6.884   7.682   8.770
20682SOL    HW174105   6.944   7.641   8.839
20682SOL    HW274106   6.809   7.620   8.750
20683SOL     OW74107   6.840   7.535   9.118
20683SOL    HW174108   6.890   7.509   9.201
20683SOL    HW274109   6.771   7.603   9.140
20684SOL     OW74110   6.014   8.992   9.012
20684SOL    HW174111   5.948   9.046   9.064
20684SOL    HW274112   6.049   9.047   8.936
20685SOL     OW74113   7.294   8.845   8.960
20685SOL    HW174114   7.352   8.925   8.973
20685SOL    HW274115   7.217   8.848   9.024
20686SOL     OW74116   6.581   7.861   8.472
20686SOL    HW174117   6.659   7.914   8.506
20686SOL    HW274118   6.579   7.772   8.518
20687SOL     OW74119   5.985   8.872   8.054
20687SOL    HW174120   5.987   8.773   8.066
20687SOL    HW274121   5.891   8.905   8.061
20688SOL     OW74122   6.642   9.026   8.575
20688SOL    HW174123   6.605   9.013   8.667
20688SOL    HW274124   6.578   9.079   8.520
20689SOL     OW74125   5.828   9.142   9.162
20689SOL    HW174126   5.850   9.239   9.161
20689SOL    HW274127   5.829   9.108   9.256
20690SOL     OW74128   5.683   8.716   9.014
20690SOL    HW174129   5.686   8.618   8.995
20690SOL    HW274130   5.600   8.755   8.974
20691SOL     OW74131   5.735   9.043   8.451
20691SOL    HW174132   5.710   8.948   8.467
20691SOL    HW274133   5.762   9.054   8.355
20692SOL     OW74134   6.570   7.510   8.246
20692SOL    HW174135   6.647   7.559   8.288
20692SOL    HW274136   6.526   7.452   8.315
20693SOL     OW74137   6.614   8.603   7.777
20693SOL    HW174138   6.708   8.614   7.809
20693SOL    HW274139   6.568   8.531   7.829
20694SOL     OW74140   7.169   7.861   8.134
20694SOL    HW174141   7.186   7.944   8.187
20694SOL    HW274142   7.218   7.784   8.175
20695SOL     OW74143   6.311   8.529   7.620
20695SOL    HW174144   6.382   8.592   7.589
20695SOL    HW274145   6.330   8.437   7.586
20696SOL     OW74146   6.347   7.513   7.534
20696SOL    HW174147   6.431   7.459   7.532
20696SOL    HW274148   6.370   7.610   7.544
20697SOL     OW74149   6.042   7.863   8.156
20697SOL    HW174150   6.123   7.806   8.139
20697SOL    HW274151   6.070   7.958   8.170
20698SOL     OW74152   6.130   8.474   8.822
20698SOL    HW174153   6.223   8.442   8.842
20698SOL    HW274154   6.135   8.551   8.758
20699SOL     OW74155   7.303   8.579   8.719
20699SOL    HW174156   7.295   8.679   8.721
20699SOL    HW274157   7.286   8.546   8.626
20700SOL     OW74158   5.732   8.660   7.475
20700SOL    HW174159   5.720   8.669   7.376
20700SOL    HW274160   5.814   8.711   7.503
20701SOL     OW74161   6.191   9.010   7.578
20701SOL    HW174162   6.143   9.095   7.558
20701SOL    HW274163   6.165   8.976   7.668
20702SOL     OW74164   6.888   8.486   8.849
20702SOL    HW174165   6.838   8.428   8.914
20702SOL    HW274166   6.849   8.578   8.850
20703SOL     OW74167   6.100   9.114   8.773
20703SOL    HW174168   6.159   9.194   8.767
20703SOL    HW274169   6.010   9.136   8.733
20704SOL     OW74170   5.760   7.957   9.108
20704SOL    HW174171   5.834   7.890   9.113
20704SOL    HW274172   5.743   7.995   9.199
20705SOL     OW74173   7.236   8.903   8.438
20705SOL    HW174174   7.304   8.976   8.439
20705SOL    HW274175   7.220   8.871   8.531
20706SOL     OW74176   5.513   8.314   8.008
20706SOL    HW174177   5.555   8.392   7.961
20706SOL    HW274178   5.419   8.337   8.031
20707SOL     OW74179   6.117   8.207   8.910
20707SOL    HW174180   6.031   8.155   8.906
20707SOL    HW274181   6.102   8.299   8.873
20708SOL     OW74182   7.178   8.538   8.235
20708SOL    HW174183   7.172   8.637   8.224
20708SOL    HW274184   7.148   8.493   8.151
20709SOL     OW74185   6.324   7.942   8.382
20709SOL    HW174186   6.417   7.920   8.412
20709SOL    HW274187   6.272   7.977   8.460
20710SOL     OW74188   6.167   8.686   8.646
20710SOL    HW174189   6.072   8.701   8.619
20710SOL    HW274190   6.220   8.657   8.566
20711SOL     OW74191   5.717   8.100   8.578
20711SOL    HW174192   5.733   8.181   8.635
20711SOL    HW274193   5.703   8.128   8.483
20712SOL     OW74194   5.895   8.795   8.862
20712SOL    HW174195   5.944   8.867   8.910
20712SOL    HW274196   5.817   8.765   8.917
20713SOL     OW74197   7.195   9.123   9.163
20713SOL    HW174198   7.148   9.034   9.160
20713SOL    HW274199   7.158   9.183   9.092
20714SOL     OW74200   6.884   8.620   7.836
20714SOL    HW174201   6.974   8.640   7.875
20714SOL    HW274202   6.894   8.591   7.741
20715SOL     OW74203   6.191   7.753   7.851
20715SOL    HW174204   6.092   7.737   7.845
20715SOL    HW274205   6.222   7.737   7.944
20716SOL     OW74206   7.127   7.474   8.148
20716SOL    HW174207   7.141   7.459   8.050
20716SOL    HW274208   7.199   7.534   8.182
20717SOL     OW74209   6.708   8.188   8.789
20717SOL    HW174210   6.803   8.178   8.762
20717SOL    HW274211   6.657   8.233   8.716
20718SOL     OW74212   6.197   8.107   8.200
20718SOL    HW174213   6.242   8.052   8.269
20718SOL    HW274214   6.233   8.084   8.109
20719SOL     OW74215   6.784   8.824   8.437
20719SOL    HW174216   6.722   8.889   8.480
20719SOL    HW274217   6.815   8.860   8.349
20720SOL     OW74218   6.894   7.815   8.112
20720SOL    HW174219   6.880   7.803   8.014
20720SOL    HW274220   6.991   7.833   8.130
20721SOL     OW74221   6.692   8.819   0.013
20721SOL    HW174222   6.758   8.745  10.000
20721SOL    HW274223   6.636   8.828   9.931
20722SOL     OW74224   7.163   8.582   9.852
20722SOL    HW174225   7.198   8.641   9.924
20722SOL    HW274226   7.237   8.555   9.791
20723SOL     OW74227   5.920   7.632   9.321
20723SOL    HW174228   5.867   7.563   9.272
20723SOL    HW274229   5.951   7.702   9.256
20724SOL     OW74230   6.115   8.872   9.608
20724SOL    HW174231   6.063   8.896   9.690
20724SOL    HW274232   6.192   8.813   9.633
20725SOL     OW74233   6.140   7.470   9.398
20725SOL    HW174234   6.226   7.517   9.377
20725SOL    HW274235   6.063   7.532   9.382
20726SOL     OW74236   5.984   8.618   9.872
20726SOL    HW174237   5.919   8.597   9.945
20726SOL    HW274238   6.073   8.577   9.894
20727SOL     OW74239   6.275   8.001   9.730
20727SOL    HW174240   6.282   8.097   9.701
20727SOL    HW274241   6.302   7.942   9.654
20728SOL     OW74242   5.985   8.793   9.373
20728SOL    HW174243   6.047   8.803   9.294
20728SOL    HW274244   6.029   8.832   9.454
20729SOL     OW74245   5.781   8.188   9.603
20729SOL    HW174246   5.749   8.100   9.638
20729SOL    HW274247   5.734   8.263   9.650
20730SOL     OW74248   6.534   9.118   9.829
20730SOL    HW174249   6.539   9.019   9.820
20730SOL    HW274250   6.469   9.154   9.763
20731SOL     OW74251   7.316   8.966   9.602
20731SOL    HW174252   7.409   8.936   9.582
20731SOL    HW274253   7.291   9.040   9.540
20732SOL     OW74254   6.592   7.721   9.702
20732SOL    HW174255   6.571   7.795   9.766
20732SOL    HW274256   6.615   7.638   9.752
20733SOL     OW74257   6.077   8.070   9.219
20733SOL    HW174258   6.050   8.166   9.219
20733SOL    HW274259   6.163   8.059   9.170
20734SOL     OW74260   7.350   8.751   0.034
20734SOL    HW174261   7.324   8.777   0.126
20734SOL    HW274262   7.335   8.828   9.972
20735SOL     OW74263   5.834   8.656   9.645
20735SOL    HW174264   5.886   8.646   9.730
20735SOL    HW274265   5.882   8.609   9.571
20736SOL     OW74266   6.691   7.646   9.454
20736SOL    HW174267   6.762   7.577   9.470
20736SOL    HW274268   6.660   7.683   9.542
20737SOL     OW74269   5.995   7.713   9.708
20737SOL    HW174270   6.020   7.788   9.770
20737SOL    HW274271   5.929   7.747   9.640
20738SOL     OW74272   7.408   9.151   0.259
20738SOL    HW174273   7.421   9.192   0.350
20738SOL    HW274274   7.457   9.205   0.191
20739SOL     OW74275   6.498   7.918   9.869
20739SOL    HW174276   6.559   7.985   9.911
20739SOL    HW274277   6.419   7.965   9.829
20740SOL     OW74278   6.792   8.362   9.393
20740SOL    HW174279   6.807   8.322   9.483
20740SOL    HW274280   6.748   8.295   9.333
20741SOL     OW74281   7.285   8.051   9.553
20741SOL    HW174282   7.227   7.973   9.531
20741SOL    HW274283   7.341   8.029   9.633
20742SOL     OW74284   6.536   9.170   9.374
20742SOL    HW174285   6.578   9.098   9.319
20742SOL    HW274286   6.537   9.142   9.470
20743SOL     OW74287   5.589   8.031   9.730
20743SOL    HW174288   5.604   7.982   9.816
20743SOL    HW274289   5.575   8.128   9.749
20744SOL     OW74290   5.730   8.915   9.591
20744SOL    HW174291   5.763   8.821   9.597
20744SOL    HW274292   5.781   8.965   9.521
20745SOL     OW74293   5.738   9.000   9.854
20745SOL    HW174294   5.646   9.017   9.889
20745SOL    HW274295   5.734   8.979   9.756
20746SOL     OW74296   6.037   8.346   9.245
20746SOL    HW174297   6.023   8.405   9.165
20746SOL    HW274298   6.009   8.394   9.328
20747SOL     OW74299   5.583   8.146   9.389
20747SOL    HW174300   5.650   8.167   9.460
20747SOL    HW274301   5.506   8.096   9.429
20748SOL     OW74302   7.125   8.261   9.624
20748SOL    HW174303   7.179   8.184   9.590
20748SOL    HW274304   7.141   8.341   9.566
20749SOL     OW74305   6.305   8.314   9.297
20749SOL    HW174306   6.332   8.224   9.331
20749SOL    HW274307   6.207   8.312   9.275
20750SOL     OW74308   6.892   7.805   9.627
20750SOL    HW174309   6.846   7.874   9.571
20750SOL    HW274310   6.991   7.811   9.613
20751SOL     OW74311   7.169   7.804   9.621
20751SOL    HW174312   7.260   7.762   9.621
20751SOL    HW274313   7.149   7.842   9.711
20752SOL     OW74314   6.391   7.825   9.535
20752SOL    HW174315   6.326   7.754   9.564
20752SOL    HW274316   6.481   7.806   9.575
20753SOL     OW74317   6.512   8.696   9.375
20753SOL    HW174318   6.568   8.670   9.454
20753SOL    HW274319   6.567   8.694   9.292
20754SOL     OW74320   7.299   8.968   9.876
20754SOL    HW174321   7.244   9.046   9.908
20754SOL    HW274322   7.293   8.962   9.776
20755SOL     OW74323   6.715   8.352   9.851
20755SOL    HW174324   6.776   8.431   9.841
20755SOL    HW274325   6.623   8.378   9.823
20756SOL     OW74326   7.033   8.350   0.017
20756SOL    HW174327   6.945   8.333   0.062
20756SOL    HW274328   7.029   8.436   9.967
20757SOL     OW74329   6.464   8.424   9.761
20757SOL    HW174330   6.415   8.357   9.705
20757SOL    HW274331   6.400   8.470   9.822
20758SOL     OW74332   5.656   7.714   9.751
20758SOL    HW174333   5.701   7.743   9.667
20758SOL    HW274334   5.670   7.784   9.822
20759SOL     OW74335   7.259   9.178   9.430
20759SOL    HW174336   7.337   9.241   9.427
20759SOL    HW274337   7.230   9.156   9.337
20760SOL     OW74338   6.312   8.246   9.615
20760SOL    HW174339   6.215   8.264   9.598
20760SOL    HW274340   6.351   8.198   9.537
20761SOL     OW74341   5.853   9.124   9.437
20761SOL    HW174342   5.943   9.161   9.414
20761SOL    HW274343   5.819   9.168   9.521
20762SOL     OW74344   6.391   7.391   9.636
20762SOL    HW174345   6.338   7.327   9.582
20762SOL    HW274346   6.343   7.479   9.640
20763SOL     OW74347   5.574   8.553   9.642
20763SOL    HW174348   5.657   8.604   9.664
20763SOL    HW274349   5.572   8.531   9.545
20764SOL     OW74350   6.961   7.456   9.359
20764SOL    HW174351   7.056   7.426   9.369
20764SOL    HW274352   6.900   7.383   9.392
20765SOL     OW74353   6.323   7.711   9.918
20765SOL    HW174354   6.352   7.642   9.984
20765SOL    HW274355   6.393   7.782   9.910
20766SOL     OW74356   7.136   7.477   9.663
20766SOL    HW174357   7.166   7.439   9.575
20766SOL    HW274358   7.037   7.493   9.660
20767SOL     OW74359   6.850   8.244   9.632
20767SOL    HW174360   6.806   8.276   9.716
20767SOL    HW274361   6.950   8.251   9.642
20768SOL     OW74362   7.200   8.190   9.876
20768SOL    HW174363   7.170   8.217   9.785
20768SOL    HW274364   7.147   8.239   9.945
20769SOL     OW74365   7.112   7.691   9.371
20769SOL    HW174366   7.130   7.725   9.463
20769SOL    HW274367   7.042   7.620   9.375
20770SOL     OW74368   5.873   8.014   9.396
20770SOL    HW174369   5.952   8.030   9.337
20770SOL    HW274370   5.857   8.095   9.452
20771SOL     OW74371   5.934   9.138   9.994
20771SOL    HW174372   5.853   9.107   9.945
20771SOL    HW274373   6.013   9.083   9.966
20772SOL     OW74374   6.310   8.698   9.693
20772SOL    HW174375   6.316   8.636   9.615
20772SOL    HW274376   6.285   8.646   9.775
20773SOL     OW74377   5.808   7.783   9.523
20773SOL    HW174378   5.838   7.712   9.459
20773SOL    HW274379   5.819   7.873   9.481
20774SOL     OW74380   5.639   7.910   9.967
20774SOL    HW174381   5.654   7.988   0.028
20774SOL    HW274382   5.591   7.838   0.017
20775SOL     OW74383   6.028   8.538   9.460
20775SOL    HW174384   6.128   8.541   9.469
20775SOL    HW274385   5.997   8.623   9.418
20776SOL     OW74386   6.666   8.123   9.266
20776SOL    HW174387   6.613   8.183   9.206
20776SOL    HW274388   6.716   8.057   9.210
20777SOL     OW74389   6.418   8.085   9.413
20777SOL    HW174390   6.507   8.092   9.368
20777SOL    HW274391   6.401   7.991   9.439
20778SOL     OW74392   6.871   7.537   9.667
20778SOL    HW174393   6.802   7.513   9.735
20778SOL    HW274394   6.873   7.636   9.655
20779SOL     OW74395   7.187   8.446   9.435
20779SOL    HW174396   7.282   8.473   9.444
20779SOL    HW274397   7.163   8.439   9.338
20780SOL     OW74398   6.673   7.500   9.855
20780SOL    HW174399   6.699   7.512   9.951
20780SOL    HW274400   6.615   7.419   9.846
20781SOL     OW74401   5.852   7.521   9.838
20781SOL    HW174402   5.914   7.576   9.782
20781SOL    HW274403   5.758   7.549   9.820
20782SOL     OW74404   5.600   8.503   9.376
20782SOL    HW174405   5.616   8.433   9.306
20782SOL    HW274406   5.647   8.587   9.349
20783SOL     OW74407   7.263   7.747   0.040
20783SOL    HW174408   7.236   7.740   0.136
20783SOL    HW274409   7.346   7.803   0.033
20784SOL     OW74410   6.784   8.017   9.496
20784SOL    HW174411   6.806   8.096   9.553
20784SOL    HW274412   6.738   8.048   9.413
20785SOL     OW74413   6.356   8.898   9.266
20785SOL    HW174414   6.325   8.963   9.334
20785SOL    HW274415   6.417   8.831   9.309
20786SOL     OW74416   6.260   8.547   9.923
20786SOL    HW174417   6.270   8.628   9.980
20786SOL    HW274418   6.271   8.465   9.979
20787SOL     OW74419   6.541   8.846   9.780
20787SOL    HW174420   6.594   8.861   9.696
20787SOL    HW274421   6.457   8.796   9.758
20788SOL     OW74422   6.043   8.289   9.578
20788SOL    HW174423   6.029   8.383   9.546
20788SOL    HW274424   5.955   8.246   9.596
20789SOL     OW74425   5.990   8.891   9.853
20789SOL    HW174426   5.993   8.792   9.863
20789SOL    HW274427   5.896   8.922   9.858
20790SOL     OW74428   6.628   8.595   9.608
20790SOL    HW174429   6.716   8.597   9.654
20790SOL    HW274430   6.565   8.535   9.658
20791SOL     OW74431   7.134   7.920   9.867
20791SOL    HW174432   7.165   8.013   9.881
20791SOL    HW274433   7.174   7.860   9.937
20792SOL     OW74434   6.303   8.544   9.459
20792SOL    HW174435   6.377   8.604   9.427
20792SOL    HW274436   6.317   8.452   9.422
20793SOL     OW74437   6.393   7.576   9.331
20793SOL    HW174438   6.453   7.500   9.352
20793SOL    HW274439   6.416   7.655   9.388
20794SOL     OW74440   6.105   7.878   9.912
20794SOL    HW174441   6.172   7.808   9.936
20794SOL    HW274442   6.146   7.945   9.850
20795SOL     OW74443   5.735   8.717   9.287
20795SOL    HW174444   5.721   8.730   9.189
20795SOL    HW274445   5.823   8.756   9.314
20796SOL     OW74446   6.235   9.058   9.453
20796SOL    HW174447   6.172   9.126   9.418
20796SOL    HW274448   6.187   8.995   9.514
20797SOL     OW74449   5.587   8.310   9.771
20797SOL    HW174450   5.574   8.401   9.732
20797SOL    HW274451   5.509   8.287   9.830
20798SOL     OW74452   6.895   8.553   9.741
20798SOL    HW174453   6.979   8.573   9.791
20798SOL    HW274454   6.911   8.560   9.643
20799SOL     OW74455   6.252   7.630   9.666
20799SOL    HW174456   6.153   7.640   9.664
20799SOL    HW274457   6.285   7.651   9.758
20800SOL     OW74458   7.231   7.496   9.915
20800SOL    HW174459   7.187   7.497   9.825
20800SOL    HW274460   7.230   7.588   9.954
20801SOL     OW74461   6.855   7.935   9.872
20801SOL    HW174462   6.836   7.881   9.790
20801SOL    HW274463   6.953   7.935   9.889
20802SOL     OW74464   7.191   9.860   1.444
20802SOL    HW174465   7.104   9.815   1.463
20802SOL    HW274466   7.257   9.834   1.514
20803SOL     OW74467   5.967   9.398   0.071
20803SOL    HW174468   5.949   9.309   0.030
20803SOL    HW274469   5.993   9.463   9.999
20804SOL     OW74470   6.734   9.298   1.336
20804SOL    HW174471   6.654   9.249   1.372
20804SOL    HW274472   6.778   9.242   1.265
20805SOL     OW74473   6.166   9.262   0.209
20805SOL    HW174474   6.252   9.292   0.168
20805SOL    HW274475   6.090   9.315   0.170
20806SOL     OW74476   6.149   9.809   0.583
20806SOL    HW174477   6.171   9.890   0.529
20806SOL    HW274478   6.188   9.728   0.539
20807SOL     OW74479   6.802   9.767   1.731
20807SOL    HW174480   6.895   9.753   1.766
20807SOL    HW274481   6.750   9.682   1.739
20808SOL     OW74482   6.042   9.475   0.996
20808SOL    HW174483   6.108   9.551   0.994
20808SOL    HW274484   6.078   9.399   0.942
20809SOL     OW74485   7.219   9.538   1.119
20809SOL    HW174486   7.252   9.631   1.135
20809SOL    HW274487   7.120   9.539   1.108
20810SOL     OW74488   6.030   9.863   0.000
20810SOL    HW174489   5.970   9.936   9.967
20810SOL    HW274490   6.096   9.902   0.064
20811SOL     OW74491   6.588   9.931   1.556
20811SOL    HW174492   6.634   9.850   1.590
20811SOL    HW274493   6.598   0.005   1.623
20812SOL     OW74494   6.721   9.538   0.290
20812SOL    HW174495   6.754   9.451   0.253
20812SOL    HW274496   6.622   9.545   0.276
20813SOL     OW74497   5.952   9.746   1.248
20813SOL    HW174498   5.940   9.647   1.246
20813SOL    HW274499   5.912   9.783   1.332
20814SOL     OW74500   6.990   0.002   1.304
20814SOL    HW174501   7.002   0.101   1.299
20814SOL    HW274502   7.072   9.961   1.344
20815SOL     OW74503   5.967   9.527   0.456
20815SOL    HW174504   5.923   9.572   0.534
20815SOL    HW274505   5.917   9.548   0.372
20816SOL     OW74506   7.294   9.793   1.185
20816SOL    HW174507   7.385   9.833   1.180
20816SOL    HW274508   7.252   9.817   1.273
20817SOL     OW74509   6.643   9.549   1.763
20817SOL    HW174510   6.658   9.542   1.861
20817SOL    HW274511   6.553   9.513   1.740
20818SOL     OW74512   7.112   9.809   0.316
20818SOL    HW174513   7.170   9.813   0.235
20818SOL    HW274514   7.143   9.735   0.376
20819SOL     OW74515   6.331   9.273   1.726
20819SOL    HW174516   6.350   9.179   1.698
20819SOL    HW274517   6.331   9.278   1.826
20820SOL     OW74518   7.303   9.832   0.893
20820SOL    HW174519   7.248   9.908   0.858
20820SOL    HW274520   7.291   9.825   0.992
20821SOL     OW74521   6.923   9.199   0.886
20821SOL    HW174522   6.877   9.287   0.883
20821SOL    HW274523   7.014   9.207   0.845
20822SOL     OW74524   7.272   9.439   1.786
20822SOL    HW174525   7.226   9.479   1.866
20822SOL    HW274526   7.281   9.340   1.798
20823SOL     OW74527   5.803   9.421   0.849
20823SOL    HW174528   5.874   9.452   0.911
20823SOL    HW274529   5.832   9.336   0.804
20824SOL     OW74530   5.913   9.465   1.239
20824SOL    HW174531   5.897   9.369   1.263
20824SOL    HW274532   5.959   9.469   1.151
20825SOL     OW74533   6.587   0.236   1.197
20825SOL    HW174534   6.641   0.191   1.268
20825SOL    HW274535   6.540   0.167   1.142
20826SOL     OW74536   6.897   9.662   0.447
20826SOL    HW174537   6.826   9.624   0.389
20826SOL    HW274538   6.955   9.723   0.393
20827SOL     OW74539   5.818   9.806   1.489
20827SOL    HW174540   5.773   9.721   1.462
20827SOL    HW274541   5.818   9.813   1.589
20828SOL     OW74542   5.719   9.560   1.422
20828SOL    HW174543   5.787   9.522   1.359
20828SOL    HW274544   5.628   9.536   1.390
20829SOL     OW74545   6.470   0.005   1.080
20829SOL    HW174546   6.521   9.923   1.055
20829SOL    HW274547   6.435   9.994   1.173
20830SOL     OW74548   7.201   9.608   0.475
20830SOL    HW174549   7.298   9.594   0.457
20830SOL    HW274550   7.186   9.613   0.574
20831SOL     OW74551   6.448   9.574   0.260
20831SOL    HW174552   6.374   9.591   0.324
20831SOL    HW274553   6.447   9.644   0.189
20832SOL     OW74554   5.630   9.570   0.440
20832SOL    HW174555   5.686   9.563   0.358
20832SOL    HW274556   5.688   9.593   0.519
20833SOL     OW74557   6.392   9.972   1.349
20833SOL    HW174558   6.340   0.053   1.377
20833SOL    HW274559   6.459   9.949   1.420
20834SOL     OW74560   5.879   9.841   0.994
20834SOL    HW174561   5.958   9.850   0.934
20834SOL    HW274562   5.907   9.802   1.082
20835SOL     OW74563   6.237   9.259   0.476
20835SOL    HW174564   6.204   9.256   0.381
20835SOL    HW274565   6.264   9.353   0.498
20836SOL     OW74566   7.121   9.514   1.568
20836SOL    HW174567   7.075   9.602   1.576
20836SOL    HW274568   7.176   9.498   1.650
20837SOL     OW74569   6.817   9.460   0.906
20837SOL    HW174570   6.843   9.518   0.828
20837SOL    HW274571   6.863   9.493   0.989
20838SOL     OW74572   6.828   9.303   0.189
20838SOL    HW174573   6.905   9.239   0.191
20838SOL    HW274574   6.749   9.258   0.148
20839SOL     OW74575   7.132   9.235   1.571
20839SOL    HW174576   7.115   9.197   1.480
20839SOL    HW274577   7.115   9.334   1.570
20840SOL     OW74578   6.320   9.470   0.697
20840SOL    HW174579   6.250   9.414   0.739
20840SOL    HW274580   6.402   9.472   0.755
20841SOL     OW74581   6.873   9.844   1.113
20841SOL    HW174582   6.886   9.897   1.029
20841SOL    HW274583   6.914   9.892   1.190
20842SOL     OW74584   7.135   9.249   0.483
20842SOL    HW174585   7.131   9.209   0.392
20842SOL    HW274586   7.052   9.302   0.500
20843SOL     OW74587   6.683   9.800   0.776
20843SOL    HW174588   6.765   9.744   0.764
20843SOL    HW274589   6.650   9.789   0.870
20844SOL     OW74590   7.308   9.827   1.705
20844SOL    HW174591   7.283   9.923   1.714
20844SOL    HW274592   7.403   9.814   1.731
20845SOL     OW74593   6.943   9.578   1.122
20845SOL    HW174594   6.923   9.676   1.113
20845SOL    HW274595   6.923   9.549   1.215
20846SOL     OW74596   7.064   9.719   1.804
20846SOL    HW174597   7.150   9.759   1.772
20846SOL    HW274598   7.082   9.655   1.879
20847SOL     OW74599   7.098   9.465   0.256
20847SOL    HW174600   7.125   9.509   0.342
20847SOL    HW274601   7.001   9.443   0.259
20848SOL     OW74602   5.673   9.516   1.697
20848SOL    HW174603   5.688   9.528   1.599
20848SOL    HW274604   5.578   9.488   1.712
20849SOL     OW74605   5.790   9.616   0.653
20849SOL    HW174606   5.762   9.704   0.692
20849SOL    HW274607   5.795   9.548   0.726
20850SOL     OW74608   5.805   9.796   0.155
20850SOL    HW174609   5.886   9.822   0.102
20850SOL    HW274610   5.789   9.864   0.226
20851SOL     OW74611   7.310   9.462   1.372
20851SOL    HW174612   7.236   9.486   1.436
20851SOL    HW274613   7.278   9.477   1.278
20852SOL     OW74614   5.800   9.539   0.227
20852SOL    HW174615   5.866   9.485   0.175
20852SOL    HW274616   5.802   9.634   0.195
20853SOL     OW74617   5.689   9.840   0.781
20853SOL    HW174618   5.596   9.849   0.817
20853SOL    HW274619   5.755   9.846   0.855
20854SOL     OW74620   6.718   9.847   9.934
20854SOL    HW174621   6.713   9.944   9.911
20854SOL    HW274622   6.814   9.818   9.933
20855SOL     OW74623   6.913   9.394   0.527
20855SOL    HW174624   6.821   9.377   0.562
20855SOL    HW274625   6.923   9.490   0.503
20856SOL     OW74626   6.957   9.742   1.501
20856SOL    HW174627   6.895   9.765   1.576
20856SOL    HW274628   6.917   9.668   1.447
20857SOL     OW74629   5.621   9.390   0.049
20857SOL    HW174630   5.610   9.303   0.097
20857SOL    HW274631   5.685   9.447   0.100
20858SOL     OW74632   6.219   9.822   1.192
20858SOL    HW174633   6.271   9.877   1.258
20858SOL    HW274634   6.125   9.813   1.223
20859SOL     OW74635   6.651   9.402   0.610
20859SOL    HW174636   6.593   9.449   0.543
20859SOL    HW274637   6.610   9.410   0.701
20860SOL     OW74638   6.144   9.291   0.819
20860SOL    HW174639   6.065   9.245   0.778
20860SOL    HW274640   6.217   9.225   0.833
20861SOL     OW74641   5.644   0.203   1.013
20861SOL    HW174642   5.735   0.222   0.976
20861SOL    HW274643   5.646   0.119   1.067
20862SOL     OW74644   5.860   9.269   0.452
20862SOL    HW174645   5.908   9.357   0.451
20862SOL    HW274646   5.762   9.284   0.463
20863SOL     OW74647   7.324   9.421   0.883
20863SOL    HW174648   7.296   9.451   0.974
20863SOL    HW274649   7.424   9.416   0.879
20864SOL     OW74650   5.813   0.053   1.367
20864SOL    HW174651   5.819   9.971   1.424
20864SOL    HW274652   5.753   0.119   1.411
20865SOL     OW74653   6.091   9.577   1.795
20865SOL    HW174654   6.157   9.565   1.721
20865SOL    HW274655   6.099   9.670   1.832
20866SOL     OW74656   5.976   0.122   0.386
20866SOL    HW174657   5.958   0.211   0.428
20866SOL    HW274658   6.064   0.087   0.417
20867SOL     OW74659   6.897   9.504   1.383
20867SOL    HW174660   6.968   9.472   1.445
20867SOL    HW274661   6.829   9.432   1.368
20868SOL     OW74662   5.574   9.304   0.459
20868SOL    HW174663   5.480   9.280   0.483
20868SOL    HW274664   5.583   9.404   0.456
20869SOL     OW74665   6.845   9.356   1.759
20869SOL    HW174666   6.883   9.355   1.852
20869SOL    HW274667   6.780   9.431   1.751
20870SOL     OW74668   6.618   9.770   1.046
20870SOL    HW174669   6.709   9.799   1.076
20870SOL    HW274670   6.604   9.674   1.070
20871SOL     OW74671   6.541   9.440   0.869
20871SOL    HW174672   6.637   9.444   0.893
20871SOL    HW274673   6.497   9.364   0.917
20872SOL     OW74674   7.188   9.623   0.752
20872SOL    HW174675   7.226   9.705   0.796
20872SOL    HW274676   7.230   9.542   0.792
20873SOL     OW74677   6.399   9.356   0.107
20873SOL    HW174678   6.474   9.290   0.103
20873SOL    HW274679   6.424   9.430   0.170
20874SOL     OW74680   6.108   9.853   0.846
20874SOL    HW174681   6.157   9.778   0.891
20874SOL    HW274682   6.115   9.842   0.747
20875SOL     OW74683   5.785   9.769   1.758
20875SOL    HW174684   5.738   9.681   1.752
20875SOL    HW274685   5.796   9.794   1.854
20876SOL     OW74686   6.247   9.660   0.982
20876SOL    HW174687   6.341   9.639   0.955
20876SOL    HW274688   6.248   9.720   1.062
20877SOL     OW74689   5.685   9.963   1.144
20877SOL    HW174690   5.731   9.996   1.227
20877SOL    HW274691   5.752   9.921   1.083
20878SOL     OW74692   6.243   9.574   0.460
20878SOL    HW174693   6.145   9.551   0.453
20878SOL    HW274694   6.277   9.546   0.549
20879SOL     OW74695   7.169   9.227   0.759
20879SOL    HW174696   7.153   9.250   0.663
20879SOL    HW274697   7.227   9.296   0.802
20880SOL     OW74698   6.910   9.648   0.723
20880SOL    HW174699   6.896   9.658   0.624
20880SOL    HW274700   7.008   9.644   0.743
20881SOL     OW74701   7.190   9.856   3.297
20881SOL    HW174702   7.105   9.808   3.320
20881SOL    HW274703   7.260   9.835   3.366
20882SOL     OW74704   5.885   9.411   1.831
20882SOL    HW174705   5.806   9.442   1.779
20882SOL    HW274706   5.963   9.472   1.812
20883SOL     OW74707   6.731   9.310   3.169
20883SOL    HW174708   6.652   9.264   3.209
20883SOL    HW274709   6.777   9.248   3.107
20884SOL     OW74710   6.073   9.249   1.980
20884SOL    HW174711   6.167   9.282   1.983
20884SOL    HW274712   6.018   9.311   1.924
20885SOL     OW74713   6.290   9.802   2.400
20885SOL    HW174714   6.309   9.880   2.340
20885SOL    HW274715   6.237   9.734   2.350
20886SOL     OW74716   6.809   9.764   3.596
20886SOL    HW174717   6.893   9.748   3.648
20886SOL    HW274718   6.753   9.681   3.598
20887SOL     OW74719   6.098   9.475   2.854
20887SOL    HW174720   6.157   9.555   2.864
20887SOL    HW274721   6.152   9.398   2.818
20888SOL     OW74722   7.238   9.558   2.966
20888SOL    HW174723   7.268   9.652   2.982
20888SOL    HW274724   7.139   9.555   2.956
20889SOL     OW74725   6.593   9.558   2.255
20889SOL    HW174726   6.587   9.641   2.311
20889SOL    HW274727   6.607   9.479   2.315
20890SOL     OW74728   6.123   9.828   1.914
20890SOL    HW174729   6.093   9.923   1.908
20890SOL    HW274730   6.218   9.824   1.945
20891SOL     OW74731   6.562   9.931   3.398
20891SOL    HW174732   6.600   9.845   3.433
20891SOL    HW274733   6.573   0.002   3.467
20892SOL     OW74734   6.717   9.520   2.016
20892SOL    HW174735   6.790   9.452   2.029
20892SOL    HW274736   6.677   9.544   2.105
20893SOL     OW74737   5.957   9.752   3.051
20893SOL    HW174738   5.947   9.652   3.046
20893SOL    HW274739   5.918   9.785   3.138
20894SOL     OW74740   6.989   9.997   3.160
20894SOL    HW174741   7.004   0.096   3.152
20894SOL    HW274742   7.072   9.955   3.198
20895SOL     OW74743   5.927   9.488   2.292
20895SOL    HW174744   5.877   9.533   2.366
20895SOL    HW274745   5.880   9.504   2.205
20896SOL     OW74746   7.300   9.817   3.044
20896SOL    HW174747   7.392   9.858   3.043
20896SOL    HW274748   7.258   9.831   3.134
20897SOL     OW74749   6.498   9.664   2.511
20897SOL    HW174750   6.561   9.723   2.562
20897SOL    HW274751   6.423   9.719   2.474
20898SOL     OW74752   6.642   9.547   3.607
20898SOL    HW174753   6.666   9.543   3.704
20898SOL    HW274754   6.553   9.504   3.593
20899SOL     OW74755   7.397   9.851   2.120
20899SOL    HW174756   7.420   9.762   2.159
20899SOL    HW274757   7.398   9.920   2.193
20900SOL     OW74758   6.301   9.292   3.559
20900SOL    HW174759   6.327   9.199   3.534
20900SOL    HW274760   6.315   9.306   3.657
20901SOL     OW74761   7.244   9.854   2.772
20901SOL    HW174762   7.202   9.938   2.738
20901SOL    HW274763   7.252   9.858   2.871
20902SOL     OW74764   6.928   9.195   2.730
20902SOL    HW174765   6.881   9.283   2.738
20902SOL    HW274766   7.014   9.207   2.681
20903SOL     OW74767   7.279   9.444   3.640
20903SOL    HW174768   7.233   9.477   3.723
20903SOL    HW274769   7.313   9.352   3.656
20904SOL     OW74770   5.877   9.432   2.677
20904SOL    HW174771   5.950   9.457   2.741
20904SOL    HW274772   5.871   9.333   2.670
20905SOL     OW74773   5.920   9.460   3.064
20905SOL    HW174774   5.898   9.365   3.085
20905SOL    HW274775   5.984   9.463   2.986
20906SOL     OW74776   6.595   0.247   3.079
20906SOL    HW174777   6.650   0.214   3.155
20906SOL    HW274778   6.557   0.169   3.029
20907SOL     OW74779   6.897   9.663   2.293
20907SOL    HW174780   6.848   9.731   2.238
20907SOL    HW274781   6.993   9.690   2.302
20908SOL     OW74782   5.834   9.804   3.298
20908SOL    HW174783   5.789   9.717   3.280
20908SOL    HW274784   5.843   9.817   3.397
20909SOL     OW74785   5.732   9.555   3.252
20909SOL    HW174786   5.796   9.517   3.185
20909SOL    HW274787   5.639   9.529   3.229
20910SOL     OW74788   6.518   9.992   2.986
20910SOL    HW174789   6.558   9.904   2.962
20910SOL    HW274790   6.455   9.980   3.063
20911SOL     OW74791   7.156   9.725   2.346
20911SOL    HW174792   7.243   9.694   2.307
20911SOL    HW274793   7.153   9.703   2.443
20912SOL     OW74794   6.373   9.567   2.101
20912SOL    HW174795   6.296   9.563   2.164
20912SOL    HW274796   6.458   9.560   2.152
20913SOL     OW74797   6.483   0.161   2.371
20913SOL    HW174798   6.438   0.097   2.308
20913SOL    HW274799   6.418   0.191   2.440
20914SOL     OW74800   5.606   9.575   2.268
20914SOL    HW174801   5.666   9.559   2.189
20914SOL    HW274802   5.662   9.589   2.350
20915SOL     OW74803   6.358   9.964   3.208
20915SOL    HW174804   6.311   0.049   3.232
20915SOL    HW274805   6.427   9.943   3.277
20916SOL     OW74806   5.894   9.845   2.796
20916SOL    HW174807   5.964   9.824   2.728
20916SOL    HW274808   5.920   9.807   2.885
20917SOL     OW74809   6.291   9.278   2.275
20917SOL    HW174810   6.301   9.266   2.176
20917SOL    HW274811   6.251   9.367   2.294
20918SOL     OW74812   7.142   9.511   3.409
20918SOL    HW174813   7.089   9.596   3.412
20918SOL    HW274814   7.188   9.497   3.497
20919SOL     OW74815   6.817   9.448   2.765
20919SOL    HW174816   6.825   9.510   2.687
20919SOL    HW274817   6.870   9.485   2.842
20920SOL     OW74818   6.920   9.326   2.048
20920SOL    HW174819   6.924   9.228   2.028
20920SOL    HW274820   6.901   9.340   2.145
20921SOL     OW74821   7.141   9.234   3.415
20921SOL    HW174822   7.125   9.195   3.325
20921SOL    HW274823   7.132   9.333   3.411
20922SOL     OW74824   6.258   9.530   2.568
20922SOL    HW174825   6.255   9.446   2.622
20922SOL    HW274826   6.352   9.564   2.565
20923SOL     OW74827   6.890   9.839   2.962
20923SOL    HW174828   6.893   9.897   2.881
20923SOL    HW274829   6.925   9.890   3.041
20924SOL     OW74830   7.147   9.306   2.309
20924SOL    HW174831   7.171   9.263   2.222
20924SOL    HW274832   7.051   9.334   2.307
20925SOL     OW74833   6.672   9.815   2.648
20925SOL    HW174834   6.755   9.765   2.627
20925SOL    HW274835   6.656   9.813   2.747
20926SOL     OW74836   7.272   9.822   3.577
20926SOL    HW174837   7.241   9.917   3.574
20926SOL    HW274838   7.368   9.819   3.604
20927SOL     OW74839   6.960   9.576   2.967
20927SOL    HW174840   6.941   9.673   2.958
20927SOL    HW274841   6.939   9.546   3.060
20928SOL     OW74842   7.054   9.722   3.715
20928SOL    HW174843   7.132   9.754   3.661
20928SOL    HW274844   7.079   9.638   3.764
20929SOL     OW74845   7.119   9.528   2.000
20929SOL    HW174846   7.152   9.567   2.086
20929SOL    HW274847   7.054   9.455   2.019
20930SOL     OW74848   5.703   9.443   3.515
20930SOL    HW174849   5.707   9.486   3.425
20930SOL    HW274850   5.607   9.434   3.543
20931SOL     OW74851   5.767   9.592   2.487
20931SOL    HW174852   5.731   9.674   2.532
20931SOL    HW274853   5.806   9.531   2.555
20932SOL     OW74854   5.861   9.800   2.034
20932SOL    HW174855   5.955   9.806   2.000
20932SOL    HW274856   5.842   9.879   2.092
20933SOL     OW74857   7.332   9.468   3.212
20933SOL    HW174858   7.258   9.487   3.277
20933SOL    HW274859   7.301   9.488   3.120
20934SOL     OW74860   5.787   9.540   2.058
20934SOL    HW174861   5.825   9.489   1.981
20934SOL    HW274862   5.810   9.637   2.049
20935SOL     OW74863   5.671   9.796   2.633
20935SOL    HW174864   5.584   9.821   2.675
20935SOL    HW274865   5.746   9.819   2.695
20936SOL     OW74866   6.645   9.910   1.909
20936SOL    HW174867   6.631   9.998   1.863
20936SOL    HW274868   6.705   9.853   1.853
20937SOL     OW74869   6.393   9.821   1.993
20937SOL    HW174870   6.485   9.844   1.960
20937SOL    HW274871   6.392   9.725   2.021
20938SOL     OW74872   6.876   9.392   2.311
20938SOL    HW174873   6.805   9.369   2.378
20938SOL    HW274874   6.883   9.491   2.302
20939SOL     OW74875   6.967   9.727   3.373
20939SOL    HW174876   6.905   9.754   3.446
20939SOL    HW274877   6.922   9.661   3.312
20940SOL     OW74878   5.632   9.290   2.029
20940SOL    HW174879   5.703   9.223   2.047
20940SOL    HW274880   5.670   9.382   2.040
20941SOL     OW74881   6.188   9.909   2.990
20941SOL    HW174882   6.240   9.928   3.073
20941SOL    HW274883   6.101   9.865   3.014
20942SOL     OW74884   6.637   9.414   2.487
20942SOL    HW174885   6.596   9.502   2.506
20942SOL    HW274886   6.612   9.349   2.559
20943SOL     OW74887   6.275   9.305   2.718
20943SOL    HW174888   6.244   9.211   2.707
20943SOL    HW274889   6.375   9.306   2.728
20944SOL     OW74890   5.596   0.229   2.903
20944SOL    HW174891   5.674   0.282   2.935
20944SOL    HW274892   5.615   0.131   2.912
20945SOL     OW74893   5.811   9.230   2.315
20945SOL    HW174894   5.867   9.312   2.328
20945SOL    HW274895   5.717   9.249   2.345
20946SOL     OW74896   7.290   9.450   2.708
20946SOL    HW174897   7.289   9.475   2.804
20946SOL    HW274898   7.378   9.476   2.668
20947SOL     OW74899   6.781   9.870   2.155
20947SOL    HW174900   6.791   9.957   2.203
20947SOL    HW274901   6.727   9.884   2.072
20948SOL     OW74902   5.812   0.053   3.178
20948SOL    HW174903   5.825   9.967   3.228
20948SOL    HW274904   5.761   0.117   3.235
20949SOL     OW74905   6.058   9.635   3.618
20949SOL    HW174906   6.122   9.606   3.547
20949SOL    HW274907   6.098   9.711   3.670
20950SOL     OW74908   6.082   9.986   2.195
20950SOL    HW174909   6.064   0.025   2.106
20950SOL    HW274910   5.996   9.974   2.245
20951SOL     OW74911   6.904   9.505   3.227
20951SOL    HW174912   6.974   9.463   3.285
20951SOL    HW274913   6.832   9.438   3.209
20952SOL     OW74914   5.556   9.319   2.365
20952SOL    HW174915   5.462   9.290   2.346
20952SOL    HW274916   5.568   9.414   2.334
20953SOL     OW74917   6.849   9.357   3.599
20953SOL    HW174918   6.883   9.350   3.692
20953SOL    HW274919   6.782   9.431   3.593
20954SOL     OW74920   6.636   9.754   2.921
20954SOL    HW174921   6.730   9.781   2.943
20954SOL    HW274922   6.622   9.659   2.947
20955SOL     OW74923   6.561   9.325   2.750
20955SOL    HW174924   6.650   9.368   2.768
20955SOL    HW274925   6.541   9.260   2.823
20956SOL     OW74926   7.142   9.660   2.611
20956SOL    HW174927   7.175   9.735   2.668
20956SOL    HW274928   7.187   9.575   2.639
20957SOL     OW74929   6.341   9.312   1.997
20957SOL    HW174930   6.423   9.255   2.001
20957SOL    HW274931   6.365   9.406   2.023
20958SOL     OW74932   6.099   9.770   2.622
20958SOL    HW174933   6.128   9.674   2.630
20958SOL    HW274934   6.157   9.816   2.555
20959SOL     OW74935   5.829   9.797   3.573
20959SOL    HW174936   5.904   9.736   3.599
20959SOL    HW274937   5.795   9.845   3.654
20960SOL     OW74938   6.282   9.678   2.875
20960SOL    HW174939   6.365   9.693   2.822
20960SOL    HW274940   6.247   9.765   2.909
20961SOL     OW74941   5.696   9.973   2.945
20961SOL    HW174942   5.741   9.998   3.031
20961SOL    HW274943   5.763   9.932   2.883
20962SOL     OW74944   6.190   9.544   2.308
20962SOL    HW174945   6.093   9.524   2.295
20962SOL    HW274946   6.213   9.538   2.405
20963SOL     OW74947   7.155   9.249   2.581
20963SOL    HW174948   7.148   9.274   2.485
20963SOL    HW274949   7.205   9.319   2.631
20964SOL     OW74950   6.873   9.645   2.571
20964SOL    HW174951   6.864   9.649   2.472
20964SOL    HW274952   6.970   9.653   2.596
20965SOL     OW74953   5.905   9.423   3.686
20965SOL    HW174954   5.826   9.427   3.625
20965SOL    HW274955   5.969   9.496   3.662
20966SOL     OW74956   6.724   9.334   5.022
20966SOL    HW174957   6.677   9.269   5.082
20966SOL    HW274958   6.777   9.284   4.953
20967SOL     OW74959   6.077   9.259   3.831
20967SOL    HW174960   6.171   9.292   3.826
20967SOL    HW274961   6.019   9.318   3.775
20968SOL     OW74962   6.326   9.792   4.236
20968SOL    HW174963   6.335   9.871   4.174
20968SOL    HW274964   6.277   9.719   4.189
20969SOL     OW74965   6.854   9.683   5.549
20969SOL    HW174966   6.942   9.672   5.595
20969SOL    HW274967   6.789   9.616   5.585
20970SOL     OW74968   6.093   9.480   4.719
20970SOL    HW174969   6.167   9.548   4.730
20970SOL    HW274970   6.127   9.403   4.666
20971SOL     OW74971   7.252   9.552   4.811
20971SOL    HW174972   7.276   9.649   4.812
20971SOL    HW274973   7.152   9.543   4.812
20972SOL     OW74974   6.605   9.551   4.079
20972SOL    HW174975   6.605   9.625   4.146
20972SOL    HW274976   6.613   9.463   4.126
20973SOL     OW74977   6.142   9.850   3.765
20973SOL    HW174978   6.108   9.943   3.770
20973SOL    HW274979   6.237   9.847   3.795
20974SOL     OW74980   6.475   9.908   5.274
20974SOL    HW174981   6.490   9.810   5.292
20974SOL    HW274982   6.554   9.959   5.306
20975SOL     OW74983   6.747   9.532   3.850
20975SOL    HW174984   6.813   9.458   3.865
20975SOL    HW274985   6.699   9.552   3.936
20976SOL     OW74986   5.926   9.820   4.813
20976SOL    HW174987   5.913   9.723   4.833
20976SOL    HW274988   5.842   9.869   4.835
20977SOL     OW74989   6.959   9.895   5.108
20977SOL    HW174990   7.027   9.962   5.138
20977SOL    HW274991   6.950   9.824   5.177
20978SOL     OW74992   5.950   9.497   4.157
20978SOL    HW174993   5.900   9.542   4.231
20978SOL    HW274994   5.909   9.521   4.069
20979SOL     OW74995   7.302   9.822   4.836
20979SOL    HW174996   7.396   9.855   4.847
20979SOL    HW274997   7.242   9.871   4.900
20980SOL     OW74998   6.570   9.690   4.311
20980SOL    HW174999   6.619   9.750   4.375
20980SOL    HW275000   6.478   9.726   4.295
20981SOL     OW75001   7.133   9.849   3.954
20981SOL    HW175002   7.083   9.810   3.877
20981SOL    HW275003   7.167   9.775   4.013
20982SOL     OW75004   6.230   9.206   5.381
20982SOL    HW175005   6.299   9.134   5.378
20982SOL    HW275006   6.231   9.249   5.472
20983SOL     OW75007   7.291   9.852   4.559
20983SOL    HW175008   7.237   9.930   4.528
20983SOL    HW275009   7.287   9.846   4.659
20984SOL     OW75010   6.931   9.216   4.582
20984SOL    HW175011   6.881   9.303   4.586
20984SOL    HW275012   7.017   9.230   4.533
20985SOL     OW75013   5.862   9.431   4.564
20985SOL    HW175014   5.944   9.457   4.615
20985SOL    HW275015   5.873   9.338   4.528
20986SOL     OW75016   5.868   9.549   4.858
20986SOL    HW175017   5.798   9.515   4.796
20986SOL    HW275018   5.958   9.520   4.827
20987SOL     OW75019   6.543   0.295   4.949
20987SOL    HW175020   6.590   0.208   4.936
20987SOL    HW275021   6.452   0.279   4.988
20988SOL     OW75022   6.913   9.664   4.139
20988SOL    HW175023   6.866   9.738   4.090
20988SOL    HW275024   7.012   9.674   4.127
20989SOL     OW75025   5.880   9.806   5.248
20989SOL    HW175026   5.840   9.737   5.188
20989SOL    HW275027   5.820   9.821   5.327
20990SOL     OW75028   5.750   9.603   5.109
20990SOL    HW175029   5.800   9.579   5.026
20990SOL    HW275030   5.652   9.605   5.089
20991SOL     OW75031   6.567   9.982   4.892
20991SOL    HW175032   6.593   9.899   4.843
20991SOL    HW275033   6.479   9.969   4.936
20992SOL     OW75034   7.197   9.646   4.133
20992SOL    HW175035   7.292   9.624   4.115
20992SOL    HW275036   7.181   9.649   4.232
20993SOL     OW75037   6.375   9.581   3.948
20993SOL    HW175038   6.305   9.565   4.018
20993SOL    HW275039   6.466   9.569   3.989
20994SOL     OW75040   6.482   0.184   4.226
20994SOL    HW175041   6.445   0.116   4.162
20994SOL    HW275042   6.410   0.210   4.291
20995SOL     OW75043   5.632   9.558   4.134
20995SOL    HW175044   5.690   9.570   4.053
20995SOL    HW275045   5.684   9.580   4.216
20996SOL     OW75046   6.337   9.961   5.040
20996SOL    HW175047   6.306   0.055   5.050
20996SOL    HW275048   6.379   9.930   5.126
20997SOL     OW75049   5.946   9.913   4.555
20997SOL    HW175050   6.020   9.865   4.508
20997SOL    HW275051   5.942   9.881   4.650
20998SOL     OW75052   6.342   9.259   4.140
20998SOL    HW175053   6.311   9.198   4.067
20998SOL    HW275054   6.293   9.346   4.135
20999SOL     OW75055   6.814   9.473   4.622
20999SOL    HW175056   6.837   9.531   4.544
20999SOL    HW275057   6.872   9.497   4.700
21000SOL     OW75058   6.921   9.317   3.889
21000SOL    HW175059   6.922   9.219   3.871
21000SOL    HW275060   6.899   9.334   3.985
21001SOL     OW75061   7.148   9.225   5.259
21001SOL    HW175062   7.131   9.185   5.170
21001SOL    HW275063   7.134   9.324   5.255
21002SOL     OW75064   6.295   9.496   4.434
21002SOL    HW175065   6.237   9.420   4.466
21002SOL    HW275066   6.387   9.486   4.472
21003SOL     OW75067   6.913   9.834   4.840
21003SOL    HW175068   6.932   9.907   4.774
21003SOL    HW275069   6.933   9.866   4.932
21004SOL     OW75070   7.134   9.288   4.155
21004SOL    HW175071   7.154   9.246   4.066
21004SOL    HW275072   7.041   9.323   4.155
21005SOL     OW75073   6.710   9.837   4.491
21005SOL    HW175074   6.793   9.784   4.476
21005SOL    HW275075   6.684   9.832   4.588
21006SOL     OW75076   6.972   9.569   4.834
21006SOL    HW175077   6.958   9.667   4.825
21006SOL    HW275078   6.950   9.541   4.927
21007SOL     OW75079   7.131   9.507   3.870
21007SOL    HW175080   7.160   9.531   3.962
21007SOL    HW275081   7.066   9.431   3.873
21008SOL     OW75082   5.689   9.529   5.371
21008SOL    HW175083   5.721   9.547   5.279
21008SOL    HW275084   5.591   9.506   5.369
21009SOL     OW75085   5.785   9.592   4.355
21009SOL    HW175086   5.755   9.681   4.389
21009SOL    HW275087   5.811   9.534   4.433
21010SOL     OW75088   5.915   9.789   3.929
21010SOL    HW175089   5.999   9.810   3.880
21010SOL    HW275090   5.878   9.873   3.970
21011SOL     OW75091   7.347   9.492   5.071
21011SOL    HW175092   7.259   9.482   5.118
21011SOL    HW275093   7.331   9.505   4.973
21012SOL     OW75094   5.809   9.544   3.917
21012SOL    HW175095   5.843   9.499   3.835
21012SOL    HW275096   5.839   9.640   3.917
21013SOL     OW75097   5.699   9.826   4.457
21013SOL    HW175098   5.618   9.866   4.500
21013SOL    HW275099   5.781   9.871   4.493
21014SOL     OW75100   6.657   9.922   3.762
21014SOL    HW175101   6.643   0.008   3.713
21014SOL    HW275102   6.716   9.862   3.707
21015SOL     OW75103   6.406   9.834   3.843
21015SOL    HW175104   6.499   9.855   3.813
21015SOL    HW275105   6.401   9.738   3.872
21016SOL     OW75106   6.878   9.394   4.149
21016SOL    HW175107   6.807   9.375   4.217
21016SOL    HW275108   6.890   9.493   4.141
21017SOL     OW75109   5.630   9.326   3.898
21017SOL    HW175110   5.695   9.250   3.905
21017SOL    HW275111   5.680   9.412   3.904
21018SOL     OW75112   6.192   9.910   4.806
21018SOL    HW175113   6.233   9.923   4.897
21018SOL    HW275114   6.096   9.884   4.817
21019SOL     OW75115   6.661   9.422   4.323
21019SOL    HW175116   6.636   9.519   4.326
21019SOL    HW275117   6.614   9.374   4.397
21020SOL     OW75118   6.158   9.283   4.541
21020SOL    HW175119   6.080   9.233   4.505
21020SOL    HW275120   6.231   9.219   4.564
21021SOL     OW75121   5.624   0.198   4.769
21021SOL    HW175122   5.709   0.241   4.801
21021SOL    HW275123   5.546   0.249   4.804
21022SOL     OW75124   5.847   9.242   4.185
21022SOL    HW175125   5.891   9.331   4.175
21022SOL    HW275126   5.750   9.254   4.205
21023SOL     OW75127   7.320   9.448   4.555
21023SOL    HW175128   7.302   9.474   4.650
21023SOL    HW275129   7.418   9.441   4.540
21024SOL     OW75130   6.800   9.881   4.008
21024SOL    HW175131   6.806   9.967   4.057
21024SOL    HW275132   6.744   9.894   3.926
21025SOL     OW75133   5.855   0.038   5.079
21025SOL    HW175134   5.881   9.964   5.141
21025SOL    HW275135   5.805   0.108   5.129
21026SOL     OW75136   6.064   9.669   5.426
21026SOL    HW175137   6.016   9.715   5.351
21026SOL    HW275138   6.076   9.734   5.501
21027SOL     OW75139   6.105   0.006   4.062
21027SOL    HW175140   6.073   0.044   3.975
21027SOL    HW275141   6.027   9.988   4.122
21028SOL     OW75142   6.898   9.530   5.099
21028SOL    HW175143   6.866   9.593   5.169
21028SOL    HW275144   6.828   9.460   5.082
21029SOL     OW75145   5.585   9.304   4.219
21029SOL    HW175146   5.491   9.272   4.207
21029SOL    HW275147   5.594   9.398   4.187
21030SOL     OW75148   6.847   9.346   5.479
21030SOL    HW175149   6.915   9.335   5.551
21030SOL    HW275150   6.771   9.401   5.512
21031SOL     OW75151   6.664   9.759   4.760
21031SOL    HW175152   6.756   9.782   4.791
21031SOL    HW275153   6.655   9.660   4.749
21032SOL     OW75154   6.531   9.415   4.577
21032SOL    HW175155   6.625   9.424   4.608
21032SOL    HW275156   6.485   9.344   4.629
21033SOL     OW75157   7.185   9.645   4.413
21033SOL    HW175158   7.223   9.727   4.455
21033SOL    HW275159   7.229   9.564   4.453
21034SOL     OW75160   6.341   9.339   3.820
21034SOL    HW175161   6.418   9.279   3.837
21034SOL    HW275162   6.358   9.428   3.863
21035SOL     OW75163   6.152   9.760   4.451
21035SOL    HW175164   6.179   9.668   4.478
21035SOL    HW275165   6.215   9.793   4.379
21036SOL     OW75166   5.717   9.791   5.470
21036SOL    HW175167   5.707   9.692   5.456
21036SOL    HW275168   5.754   9.809   5.561
21037SOL     OW75169   6.294   9.665   4.730
21037SOL    HW175170   6.372   9.672   4.669
21037SOL    HW275171   6.258   9.757   4.750
21038SOL     OW75172   5.693   9.956   4.875
21038SOL    HW175173   5.745   9.980   4.957
21038SOL    HW275174   5.666   0.039   4.827
21039SOL     OW75175   6.221   9.528   4.169
21039SOL    HW175176   6.122   9.516   4.165
21039SOL    HW275177   6.252   9.518   4.264
21040SOL     OW75178   7.159   9.258   4.432
21040SOL    HW175179   7.150   9.278   4.334
21040SOL    HW275180   7.221   9.324   4.474
21041SOL     OW75181   6.907   9.650   4.422
21041SOL    HW175182   6.884   9.652   4.324
21041SOL    HW275183   7.006   9.650   4.433
21042SOL     OW75184   7.176   9.839   6.967
21042SOL    HW175185   7.091   9.791   6.990
21042SOL    HW275186   7.239   9.832   7.044
21043SOL     OW75187   5.900   9.474   5.543
21043SOL    HW175188   5.820   9.472   5.483
21043SOL    HW275189   5.968   9.536   5.504
21044SOL     OW75190   6.743   9.274   6.847
21044SOL    HW175191   6.659   9.227   6.876
21044SOL    HW275192   6.793   9.217   6.782
21045SOL     OW75193   6.037   9.261   5.658
21045SOL    HW175194   6.133   9.287   5.659
21045SOL    HW275195   5.982   9.335   5.620
21046SOL     OW75196   6.287   9.797   6.145
21046SOL    HW175197   6.309   9.879   6.092
21046SOL    HW275198   6.245   9.729   6.085
21047SOL     OW75199   6.806   9.743   7.279
21047SOL    HW175200   6.890   9.730   7.332
21047SOL    HW275201   6.747   9.663   7.291
21048SOL     OW75202   6.065   9.500   6.571
21048SOL    HW175203   6.130   9.575   6.588
21048SOL    HW275204   6.110   9.431   6.514
21049SOL     OW75205   7.222   9.558   6.651
21049SOL    HW175206   7.254   9.651   6.666
21049SOL    HW275207   7.122   9.558   6.644
21050SOL     OW75208   6.515   9.547   5.862
21050SOL    HW175209   6.535   9.604   5.942
21050SOL    HW275210   6.479   9.459   5.892
21051SOL     OW75211   6.102   9.828   5.639
21051SOL    HW175212   6.110   9.928   5.640
21051SOL    HW275213   6.175   9.789   5.695
21052SOL     OW75214   6.569   9.885   7.145
21052SOL    HW175215   6.630   9.810   7.169
21052SOL    HW275216   6.605   9.971   7.183
21053SOL     OW75217   6.701   9.493   5.671
21053SOL    HW175218   6.756   9.423   5.716
21053SOL    HW275219   6.626   9.521   5.731
21054SOL     OW75220   5.929   9.753   6.797
21054SOL    HW175221   5.929   9.653   6.797
21054SOL    HW275222   5.876   9.786   6.875
21055SOL     OW75223   6.964   0.017   6.899
21055SOL    HW175224   6.996   0.110   6.883
21055SOL    HW275225   7.041   9.960   6.928
21056SOL     OW75226   5.938   9.511   6.004
21056SOL    HW175227   5.883   9.544   6.081
21056SOL    HW275228   5.893   9.536   5.918
21057SOL     OW75229   7.291   9.818   6.713
21057SOL    HW175230   7.383   9.857   6.718
21057SOL    HW275231   7.245   9.831   6.801
21058SOL     OW75232   6.546   9.695   6.094
21058SOL    HW175233   6.609   9.731   6.163
21058SOL    HW275234   6.452   9.720   6.118
21059SOL     OW75235   6.621   9.543   7.308
21059SOL    HW175236   6.649   9.544   7.404
21059SOL    HW275237   6.523   9.520   7.303
21060SOL     OW75238   7.196   9.882   5.831
21060SOL    HW175239   7.273   9.888   5.767
21060SOL    HW275240   7.211   9.806   5.895
21061SOL     OW75241   6.325   9.281   7.263
21061SOL    HW175242   6.349   9.189   7.233
21061SOL    HW275243   6.326   9.285   7.363
21062SOL     OW75244   7.279   9.869   6.435
21062SOL    HW175245   7.223   9.946   6.404
21062SOL    HW275246   7.269   9.860   6.535
21063SOL     OW75247   6.928   9.199   6.413
21063SOL    HW175248   6.880   9.286   6.418
21063SOL    HW275249   7.016   9.212   6.368
21064SOL     OW75250   7.283   9.441   7.322
21064SOL    HW175251   7.245   9.469   7.410
21064SOL    HW275252   7.280   9.341   7.316
21065SOL     OW75253   5.852   9.407   6.400
21065SOL    HW175254   5.914   9.445   6.468
21065SOL    HW275255   5.886   9.318   6.369
21066SOL     OW75256   5.922   9.472   6.800
21066SOL    HW175257   5.916   9.376   6.825
21066SOL    HW275258   5.973   9.482   6.714
21067SOL     OW75259   6.622   0.286   6.709
21067SOL    HW175260   6.659   0.257   6.797
21067SOL    HW275261   6.582   0.207   6.662
21068SOL     OW75262   6.927   9.649   5.974
21068SOL    HW175263   6.875   9.721   5.928
21068SOL    HW275264   7.024   9.671   5.973
21069SOL     OW75265   5.769   9.811   7.029
21069SOL    HW175266   5.740   9.719   7.004
21069SOL    HW275267   5.762   9.824   7.128
21070SOL     OW75268   5.710   9.550   6.962
21070SOL    HW175269   5.786   9.520   6.906
21070SOL    HW275270   5.625   9.507   6.931
21071SOL     OW75271   6.505   0.040   6.635
21071SOL    HW175272   6.552   9.960   6.597
21071SOL    HW275273   6.483   0.023   6.731
21072SOL     OW75274   7.203   9.671   6.001
21072SOL    HW175275   7.290   9.625   5.982
21072SOL    HW275276   7.190   9.678   6.100
21073SOL     OW75277   6.302   9.706   5.791
21073SOL    HW175278   6.241   9.672   5.863
21073SOL    HW275279   6.385   9.651   5.788
21074SOL     OW75280   6.315   0.204   6.166
21074SOL    HW175281   6.339   0.127   6.108
21074SOL    HW275282   6.332   0.180   6.262
21075SOL     OW75283   5.606   9.579   5.983
21075SOL    HW175284   5.666   9.578   5.902
21075SOL    HW275285   5.662   9.589   6.065
21076SOL     OW75286   6.469   0.006   6.912
21076SOL    HW175287   6.377   0.042   6.928
21076SOL    HW275288   6.494   9.945   6.988
21077SOL     OW75289   5.885   9.825   6.524
21077SOL    HW175290   5.961   9.818   6.460
21077SOL    HW275291   5.912   9.787   6.612
21078SOL     OW75292   6.343   9.329   5.925
21078SOL    HW175293   6.321   9.309   5.829
21078SOL    HW275294   6.285   9.404   5.958
21079SOL     OW75295   7.142   9.511   7.093
21079SOL    HW175296   7.084   9.593   7.091
21079SOL    HW275297   7.192   9.508   7.180
21080SOL     OW75298   6.820   9.455   6.447
21080SOL    HW175299   6.847   9.510   6.367
21080SOL    HW275300   6.861   9.495   6.529
21081SOL     OW75301   6.993   9.342   5.716
21081SOL    HW175302   7.069   9.277   5.719
21081SOL    HW275303   6.946   9.343   5.804
21082SOL     OW75304   7.151   9.236   7.114
21082SOL    HW175305   7.134   9.193   7.026
21082SOL    HW275306   7.138   9.335   7.106
21083SOL     OW75307   6.308   9.492   6.251
21083SOL    HW175308   6.249   9.429   6.302
21083SOL    HW275309   6.402   9.485   6.285
21084SOL     OW75310   6.887   9.865   6.678
21084SOL    HW175311   6.911   9.932   6.608
21084SOL    HW275312   6.906   9.902   6.769
21085SOL     OW75313   7.130   9.266   6.006
21085SOL    HW175314   7.155   9.222   5.920
21085SOL    HW275315   7.037   9.304   5.998
21086SOL     OW75316   6.700   9.786   6.293
21086SOL    HW175317   6.786   9.735   6.293
21086SOL    HW275318   6.675   9.806   6.388
21087SOL     OW75319   7.251   9.818   7.253
21087SOL    HW175320   7.229   9.914   7.238
21087SOL    HW275321   7.346   9.810   7.284
21088SOL     OW75322   6.943   9.592   6.659
21088SOL    HW175323   6.927   9.691   6.660
21088SOL    HW275324   6.922   9.554   6.749
21089SOL     OW75325   7.048   9.714   7.408
21089SOL    HW175326   7.120   9.752   7.350
21089SOL    HW275327   7.082   9.633   7.456
21090SOL     OW75328   7.078   9.603   5.680
21090SOL    HW175329   7.136   9.631   5.757
21090SOL    HW275330   7.052   9.507   5.692
21091SOL     OW75331   5.691   9.513   7.236
21091SOL    HW175332   5.695   9.519   7.136
21091SOL    HW275333   5.598   9.490   7.264
21092SOL     OW75334   5.769   9.577   6.204
21092SOL    HW175335   5.732   9.658   6.249
21092SOL    HW275336   5.793   9.508   6.273
21093SOL     OW75337   5.836   9.838   5.715
21093SOL    HW175338   5.933   9.837   5.689
21093SOL    HW275339   5.823   9.902   5.791
21094SOL     OW75340   7.327   9.462   6.895
21094SOL    HW175341   7.256   9.485   6.962
21094SOL    HW275342   7.294   9.484   6.803
21095SOL     OW75343   5.796   9.578   5.780
21095SOL    HW175344   5.828   9.525   5.701
21095SOL    HW275345   5.804   9.675   5.760
21096SOL     OW75346   5.670   9.779   6.345
21096SOL    HW175347   5.579   9.809   6.374
21096SOL    HW275348   5.737   9.807   6.413
21097SOL     OW75349   6.675   9.888   5.591
21097SOL    HW175350   6.677   9.955   5.517
21097SOL    HW275351   6.742   9.816   5.572
21098SOL     OW75352   6.443   9.939   5.732
21098SOL    HW175353   6.524   9.920   5.676
21098SOL    HW275354   6.391   9.855   5.745
21099SOL     OW75355   6.876   9.383   5.962
21099SOL    HW175356   6.794   9.368   6.017
21099SOL    HW275357   6.899   9.480   5.962
21100SOL     OW75358   6.954   9.712   7.049
21100SOL    HW175359   6.894   9.737   7.125
21100SOL    HW275360   6.909   9.642   6.993
21101SOL     OW75361   6.130   9.930   6.737
21101SOL    HW175362   6.152   9.991   6.813
21101SOL    HW275363   6.056   9.869   6.764
21102SOL     OW75364   6.654   9.431   6.124
21102SOL    HW175365   6.623   9.525   6.110
21102SOL    HW275366   6.617   9.397   6.211
21103SOL     OW75367   6.167   9.316   6.401
21103SOL    HW175368   6.103   9.254   6.356
21103SOL    HW275369   6.247   9.265   6.432
21104SOL     OW75370   5.681   0.196   6.523
21104SOL    HW175371   5.750   0.235   6.584
21104SOL    HW275372   5.653   0.106   6.557
21105SOL     OW75373   5.847   9.255   6.047
21105SOL    HW175374   5.889   9.344   6.028
21105SOL    HW275375   5.748   9.266   6.058
21106SOL     OW75376   7.309   9.450   6.406
21106SOL    HW175377   7.283   9.478   6.498
21106SOL    HW275378   7.408   9.441   6.400
21107SOL     OW75379   6.763   9.846   5.858
21107SOL    HW175380   6.694   9.848   5.931
21107SOL    HW275381   6.718   9.860   5.770
21108SOL     OW75382   5.802   0.049   6.888
21108SOL    HW175383   5.794   9.969   6.948
21108SOL    HW275384   5.751   0.126   6.926
21109SOL     OW75385   6.058   9.663   7.335
21109SOL    HW175386   6.137   9.661   7.273
21109SOL    HW275387   6.040   9.757   7.362
21110SOL     OW75388   6.086   9.993   5.910
21110SOL    HW175389   6.085   0.040   5.822
21110SOL    HW275390   5.992   9.982   5.943
21111SOL     OW75391   6.897   9.485   6.909
21111SOL    HW175392   6.971   9.446   6.963
21111SOL    HW275393   6.831   9.413   6.887
21112SOL     OW75394   5.584   9.316   6.065
21112SOL    HW175395   5.491   9.278   6.062
21112SOL    HW275396   5.581   9.411   6.035
21113SOL     OW75397   6.825   9.354   7.294
21113SOL    HW175398   6.864   9.352   7.386
21113SOL    HW275399   6.753   9.423   7.289
21114SOL     OW75400   6.642   9.810   6.567
21114SOL    HW175401   6.730   9.824   6.611
21114SOL    HW275402   6.605   9.721   6.595
21115SOL     OW75403   6.549   9.402   6.382
21115SOL    HW175404   6.640   9.419   6.419
21115SOL    HW275405   6.500   9.339   6.441
21116SOL     OW75406   7.190   9.663   6.276
21116SOL    HW175407   7.222   9.742   6.327
21116SOL    HW275408   7.232   9.580   6.313
21117SOL     OW75409   6.304   9.321   5.640
21117SOL    HW175410   6.389   9.269   5.639
21117SOL    HW275411   6.315   9.404   5.585
21118SOL     OW75412   6.113   9.757   6.357
21118SOL    HW175413   6.087   9.663   6.336
21118SOL    HW275414   6.177   9.791   6.289
21119SOL     OW75415   5.713   9.780   7.307
21119SOL    HW175416   5.717   9.681   7.291
21119SOL    HW275417   5.741   9.800   7.401
21120SOL     OW75418   6.235   9.714   6.600
21120SOL    HW175419   6.215   9.737   6.505
21120SOL    HW275420   6.219   9.795   6.658
21121SOL     OW75421   5.683   9.952   6.658
21121SOL    HW175422   5.724   9.987   6.743
21121SOL    HW275423   5.754   9.907   6.604
21122SOL     OW75424   6.203   9.564   6.014
21122SOL    HW175425   6.105   9.541   6.013
21122SOL    HW275426   6.242   9.537   6.102
21123SOL     OW75427   7.164   9.245   6.281
21123SOL    HW175428   7.151   9.263   6.183
21123SOL    HW275429   7.218   9.319   6.321
21124SOL     OW75430   6.919   9.624   6.252
21124SOL    HW175431   6.905   9.623   6.153
21124SOL    HW275432   7.016   9.640   6.272
21125SOL     OW75433   7.186   9.795   8.804
21125SOL    HW175434   7.110   9.735   8.830
21125SOL    HW275435   7.255   9.793   8.877
21126SOL     OW75436   5.915   9.435   7.367
21126SOL    HW175437   5.831   9.453   7.314
21126SOL    HW275438   5.978   9.511   7.356
21127SOL     OW75439   6.745   9.314   8.735
21127SOL    HW175440   6.660   9.266   8.755
21127SOL    HW275441   6.796   9.265   8.664
21128SOL     OW75442   6.071   9.253   7.505
21128SOL    HW175443   6.165   9.285   7.516
21128SOL    HW275444   6.019   9.319   7.450
21129SOL     OW75445   6.308   9.772   7.968
21129SOL    HW175446   6.317   9.855   7.912
21129SOL    HW275447   6.266   9.700   7.914
21130SOL     OW75448   6.045   9.499   8.401
21130SOL    HW175449   6.115   9.571   8.397
21130SOL    HW275450   6.079   9.418   8.352
21131SOL     OW75451   7.238   9.530   8.485
21131SOL    HW175452   7.272   9.622   8.500
21131SOL    HW275453   7.138   9.532   8.476
21132SOL     OW75454   6.604   9.562   7.774
21132SOL    HW175455   6.598   9.635   7.841
21132SOL    HW275456   6.619   9.475   7.821
21133SOL     OW75457   5.996   9.929   7.424
21133SOL    HW175458   5.931   9.995   7.387
21133SOL    HW275459   6.066   9.977   7.477
21134SOL     OW75460   6.570   9.917   8.943
21134SOL    HW175461   6.609   9.845   9.001
21134SOL    HW275462   6.644   9.964   8.895
21135SOL     OW75463   6.743   9.544   7.544
21135SOL    HW175464   6.816   9.477   7.558
21135SOL    HW275465   6.699   9.564   7.631
21136SOL     OW75466   5.940   9.814   8.522
21136SOL    HW175467   5.934   9.715   8.535
21136SOL    HW275468   5.851   9.856   8.542
21137SOL     OW75469   7.021   9.990   8.694
21137SOL    HW175470   7.061   0.070   8.649
21137SOL    HW275471   7.094   9.930   8.725
21138SOL     OW75472   5.939   9.490   7.837
21138SOL    HW175473   5.888   9.537   7.908
21138SOL    HW275474   5.901   9.512   7.747
21139SOL     OW75475   7.302   9.795   8.545
21139SOL    HW175476   7.393   9.836   8.543
21139SOL    HW275477   7.266   9.797   8.639
21140SOL     OW75478   6.556   9.672   8.020
21140SOL    HW175479   6.607   9.732   8.083
21140SOL    HW275480   6.462   9.705   8.012
21141SOL     OW75481   6.642   9.701   9.137
21141SOL    HW175482   6.696   9.646   9.200
21141SOL    HW275483   6.554   9.656   9.122
21142SOL     OW75484   7.139   9.835   7.657
21142SOL    HW175485   7.079   9.805   7.582
21142SOL    HW275486   7.165   9.756   7.712
21143SOL     OW75487   6.305   9.288   9.081
21143SOL    HW175488   6.329   9.192   9.065
21143SOL    HW275489   6.318   9.310   9.177
21144SOL     OW75490   7.266   9.839   8.270
21144SOL    HW175491   7.224   9.925   8.241
21144SOL    HW275492   7.262   9.832   8.370
21145SOL     OW75493   6.933   9.196   8.267
21145SOL    HW175494   6.883   9.283   8.267
21145SOL    HW275495   7.019   9.208   8.218
21146SOL     OW75496   5.823   9.427   8.228
21146SOL    HW175497   5.890   9.462   8.293
21146SOL    HW275498   5.855   9.340   8.190
21147SOL     OW75499   5.905   9.461   8.635
21147SOL    HW175500   5.890   9.363   8.647
21147SOL    HW275501   5.957   9.476   8.550
21148SOL     OW75502   6.493   0.364   8.544
21148SOL    HW175503   6.508   0.291   8.477
21148SOL    HW275504   6.439   0.328   8.621
21149SOL     OW75505   6.917   9.652   7.824
21149SOL    HW175506   6.877   9.731   7.778
21149SOL    HW275507   7.017   9.657   7.819
21150SOL     OW75508   5.753   9.834   8.905
21150SOL    HW175509   5.752   9.741   8.870
21150SOL    HW275510   5.732   9.833   9.003
21151SOL     OW75511   5.727   9.570   8.818
21151SOL    HW175512   5.800   9.537   8.757
21151SOL    HW275513   5.639   9.537   8.785
21152SOL     OW75514   6.586   9.966   8.568
21152SOL    HW175515   6.609   9.878   8.527
21152SOL    HW275516   6.502   9.956   8.622
21153SOL     OW75517   7.196   9.633   7.832
21153SOL    HW175518   7.293   9.613   7.814
21153SOL    HW275519   7.181   9.637   7.931
21154SOL     OW75520   6.375   9.579   7.638
21154SOL    HW175521   6.302   9.573   7.706
21154SOL    HW275522   6.464   9.572   7.684
21155SOL     OW75523   6.470   0.177   7.935
21155SOL    HW175524   6.424   0.105   7.883
21155SOL    HW275525   6.404   0.220   7.997
21156SOL     OW75526   5.609   9.559   7.803
21156SOL    HW175527   5.670   9.555   7.724
21156SOL    HW275528   5.662   9.581   7.885
21157SOL     OW75529   6.370   9.954   8.739
21157SOL    HW175530   6.349   0.051   8.747
21157SOL    HW275531   6.424   9.925   8.818
21158SOL     OW75532   5.921   9.931   8.268
21158SOL    HW175533   5.992   9.884   8.215
21158SOL    HW275534   5.924   9.898   8.363
21159SOL     OW75535   6.279   9.261   7.807
21159SOL    HW175536   6.294   9.259   7.708
21159SOL    HW275537   6.259   9.354   7.836
21160SOL     OW75538   6.817   9.452   8.287
21160SOL    HW175539   6.832   9.511   8.209
21160SOL    HW275540   6.872   9.484   8.365
21161SOL     OW75541   6.921   9.324   7.575
21161SOL    HW175542   6.924   9.226   7.556
21161SOL    HW275543   6.897   9.339   7.671
21162SOL     OW75544   7.088   9.266   8.951
21162SOL    HW175545   7.078   9.208   8.870
21162SOL    HW275546   7.000   9.305   8.976
21163SOL     OW75547   6.305   9.446   8.112
21163SOL    HW175548   6.240   9.388   8.161
21163SOL    HW275549   6.396   9.436   8.152
21164SOL     OW75550   6.921   9.842   8.483
21164SOL    HW175551   6.926   9.904   8.405
21164SOL    HW275552   6.954   9.889   8.565
21165SOL     OW75553   7.134   9.280   7.838
21165SOL    HW175554   7.155   9.239   7.749
21165SOL    HW275555   7.040   9.313   7.838
21166SOL     OW75556   6.701   9.821   8.192
21166SOL    HW175557   6.785   9.773   8.167
21166SOL    HW275558   6.681   9.803   8.289
21167SOL     OW75559   7.331   9.801   9.048
21167SOL    HW175560   7.254   9.860   9.070
21167SOL    HW275561   7.416   9.844   9.079
21168SOL     OW75562   6.966   9.573   8.483
21168SOL    HW175563   6.961   9.672   8.471
21168SOL    HW275564   6.947   9.550   8.579
21169SOL     OW75565   7.140   9.501   7.557
21169SOL    HW175566   7.172   9.518   7.650
21169SOL    HW275567   7.070   9.429   7.559
21170SOL     OW75568   5.680   9.528   9.090
21170SOL    HW175569   5.693   9.535   8.991
21170SOL    HW275570   5.584   9.506   9.109
21171SOL     OW75571   5.767   9.595   8.021
21171SOL    HW175572   5.749   9.687   8.055
21171SOL    HW275573   5.784   9.534   8.098
21172SOL     OW75574   5.812   9.797   7.579
21172SOL    HW175575   5.888   9.843   7.533
21172SOL    HW275576   5.799   9.838   7.670
21173SOL     OW75577   7.298   9.387   8.719
21173SOL    HW175578   7.214   9.376   8.773
21173SOL    HW275579   7.276   9.428   8.631
21174SOL     OW75580   5.792   9.530   7.597
21174SOL    HW175581   5.841   9.487   7.522
21174SOL    HW275582   5.796   9.629   7.588
21175SOL     OW75583   5.712   9.842   8.113
21175SOL    HW175584   5.623   9.849   8.159
21175SOL    HW275585   5.783   9.883   8.171
21176SOL     OW75586   6.701   9.928   7.455
21176SOL    HW175587   6.694   0.013   7.404
21176SOL    HW275588   6.743   9.858   7.398
21177SOL     OW75589   6.463   9.855   7.591
21177SOL    HW175590   6.555   9.861   7.552
21177SOL    HW275591   6.433   9.759   7.590
21178SOL     OW75592   6.875   9.385   7.836
21178SOL    HW175593   6.801   9.366   7.902
21178SOL    HW275594   6.890   9.483   7.831
21179SOL     OW75595   6.953   9.704   8.957
21179SOL    HW175596   6.986   9.681   9.049
21179SOL    HW275597   6.891   9.783   8.962
21180SOL     OW75598   5.623   9.294   7.535
21180SOL    HW175599   5.691   9.223   7.550
21180SOL    HW275600   5.658   9.381   7.568
21181SOL     OW75601   6.205   9.915   8.510
21181SOL    HW175602   6.251   9.926   8.598
21181SOL    HW275603   6.109   9.891   8.525
21182SOL     OW75604   6.651   9.409   8.001
21182SOL    HW175605   6.622   9.504   8.014
21182SOL    HW275606   6.613   9.353   8.075
21183SOL     OW75607   6.129   9.286   8.257
21183SOL    HW175608   6.062   9.242   8.198
21183SOL    HW275609   6.160   9.221   8.327
21184SOL     OW75610   5.615   0.187   8.468
21184SOL    HW175611   5.697   0.245   8.466
21184SOL    HW275612   5.535   0.244   8.484
21185SOL     OW75613   5.821   9.238   7.834
21185SOL    HW175614   5.868   9.326   7.839
21185SOL    HW275615   5.726   9.250   7.864
21186SOL     OW75616   7.321   9.434   8.235
21186SOL    HW175617   7.298   9.458   8.329
21186SOL    HW275618   7.420   9.427   8.226
21187SOL     OW75619   6.824   9.879   7.703
21187SOL    HW175620   6.834   9.965   7.754
21187SOL    HW275621   6.780   9.898   7.615
21188SOL     OW75622   5.834   0.058   8.771
21188SOL    HW175623   5.821   9.977   8.827
21188SOL    HW275624   5.783   0.134   8.810
21189SOL     OW75625   6.085   9.582   9.166
21189SOL    HW175626   6.146   9.579   9.087
21189SOL    HW275627   6.098   9.669   9.215
21190SOL     OW75628   6.061   9.970   7.766
21190SOL    HW175629   6.064   0.041   7.696
21190SOL    HW275630   5.967   9.956   7.796
21191SOL     OW75631   6.911   9.532   8.742
21191SOL    HW175632   6.918   9.585   8.827
21191SOL    HW275633   6.847   9.457   8.755
21192SOL     OW75634   5.559   9.302   7.884
21192SOL    HW175635   5.463   9.276   7.876
21192SOL    HW275636   5.570   9.399   7.860
21193SOL     OW75637   6.850   9.363   9.065
21193SOL    HW175638   6.871   9.336   9.159
21193SOL    HW275639   6.822   9.459   9.063
21194SOL     OW75640   6.674   9.733   8.458
21194SOL    HW175641   6.767   9.767   8.473
21194SOL    HW275642   6.673   9.633   8.471
21195SOL     OW75643   6.544   9.379   8.262
21195SOL    HW175644   6.640   9.403   8.281
21195SOL    HW275645   6.515   9.306   8.325
21196SOL     OW75646   7.177   9.636   8.109
21196SOL    HW175647   7.208   9.717   8.159
21196SOL    HW275648   7.225   9.555   8.143
21197SOL     OW75649   6.336   9.323   7.535
21197SOL    HW175650   6.419   9.268   7.538
21197SOL    HW275651   6.358   9.417   7.562
21198SOL     OW75652   6.114   9.776   8.160
21198SOL    HW175653   6.155   9.726   8.236
21198SOL    HW275654   6.180   9.784   8.086
21199SOL     OW75655   5.678   9.792   9.172
21199SOL    HW175656   5.685   9.693   9.154
21199SOL    HW275657   5.734   9.814   9.252
21200SOL     OW75658   6.252   9.678   8.381
21200SOL    HW175659   6.346   9.661   8.353
21200SOL    HW275660   6.246   9.767   8.425
21201SOL     OW75661   5.699   9.947   8.562
21201SOL    HW175662   5.744   9.979   8.645
21201SOL    HW275663   5.664   0.025   8.510
21202SOL     OW75664   6.213   9.529   7.866
21202SOL    HW175665   6.114   9.517   7.860
21202SOL    HW275666   6.244   9.506   7.958
21203SOL     OW75667   7.159   9.243   8.114
21203SOL    HW175668   7.149   9.265   8.017
21203SOL    HW275669   7.221   9.309   8.157
21204SOL     OW75670   6.900   9.645   8.102
21204SOL    HW175671   6.883   9.650   8.004
21204SOL    HW275672   6.998   9.644   8.119
21205SOL     OW75673   5.886   9.418   9.225
21205SOL    HW175674   5.804   9.450   9.178
21205SOL    HW275675   5.964   9.475   9.201
21206SOL     OW75676   6.080   9.264   9.359
21206SOL    HW175677   6.170   9.307   9.355
21206SOL    HW275678   6.014   9.322   9.312
21207SOL     OW75679   6.288   9.851   9.881
21207SOL    HW175680   6.309   9.910   9.803
21207SOL    HW275681   6.190   9.858   9.903
21208SOL     OW75682   6.648   9.558   9.581
21208SOL    HW175683   6.728   9.612   9.608
21208SOL    HW275684   6.635   9.484   9.646
21209SOL     OW75685   6.111   9.809   9.321
21209SOL    HW175686   6.105   9.908   9.305
21209SOL    HW275687   6.181   9.791   9.390
21210SOL     OW75688   6.772   9.543   9.326
21210SOL    HW175689   6.809   9.450   9.327
21210SOL    HW275690   6.722   9.560   9.411
21211SOL     OW75691   5.965   9.473   9.673
21211SOL    HW175692   5.978   9.533   9.752
21211SOL    HW275693   5.909   9.521   9.604
21212SOL     OW75694   6.478   9.734   0.031
21212SOL    HW175695   6.569   9.767   0.008
21212SOL    HW275696   6.409   9.788   9.982
21213SOL     OW75697   6.900   9.666   9.627
21213SOL    HW175698   6.880   9.754   9.586
21213SOL    HW275699   6.999   9.649   9.623
21214SOL     OW75700   7.162   9.606   9.650
21214SOL    HW175701   7.245   9.607   9.593
21214SOL    HW275702   7.188   9.619   9.746
21215SOL     OW75703   6.398   9.607   9.485
21215SOL    HW175704   6.333   9.562   9.547
21215SOL    HW275705   6.491   9.593   9.518
21216SOL     OW75706   6.471   0.190   9.828
21216SOL    HW175707   6.417   0.127   9.772
21216SOL    HW275708   6.446   0.179   9.924
21217SOL     OW75709   5.561   9.577   9.596
21217SOL    HW175710   5.649   9.585   9.551
21217SOL    HW275711   5.566   9.506   9.667
21218SOL     OW75712   6.375   9.213   9.634
21218SOL    HW175713   6.329   9.155   9.566
21218SOL    HW275714   6.329   9.302   9.638
21219SOL     OW75715   6.905   9.302   9.325
21219SOL    HW175716   6.980   9.349   9.373
21219SOL    HW275717   6.893   9.211   9.365
21220SOL     OW75718   6.311   9.529   9.914
21220SOL    HW175719   6.335   9.454   9.976
21220SOL    HW275720   6.368   9.609   9.935
21221SOL     OW75721   7.140   9.257   9.673
21221SOL    HW175722   7.170   9.229   9.582
21221SOL    HW275723   7.051   9.303   9.665
21222SOL     OW75724   5.839   9.822   9.398
21222SOL    HW175725   5.936   9.824   9.371
21222SOL    HW275726   5.824   9.889   9.470
21223SOL     OW75727   5.801   9.561   9.460
21223SOL    HW175728   5.833   9.503   9.385
21223SOL    HW275729   5.813   9.657   9.436
21224SOL     OW75730   5.549   9.837   0.064
21224SOL    HW175731   5.541   9.824   9.965
21224SOL    HW275732   5.640   9.810   0.094
21225SOL     OW75733   6.666   9.914   9.312
21225SOL    HW175734   6.698   9.998   9.268
21225SOL    HW275735   6.662   9.841   9.243
21226SOL     OW75736   6.434   9.884   9.450
21226SOL    HW175737   6.523   9.895   9.404
21226SOL    HW275738   6.416   9.786   9.462
21227SOL     OW75739   6.899   9.382   9.664
21227SOL    HW175740   6.813   9.362   9.712
21227SOL    HW275741   6.903   9.480   9.643
21228SOL     OW75742   5.591   9.318   9.391
21228SOL    HW175743   5.663   9.249   9.391
21228SOL    HW275744   5.615   9.392   9.454
21229SOL     OW75745   6.653   9.368   9.790
21229SOL    HW175746   6.644   9.415   9.877
21229SOL    HW275747   6.614   9.276   9.797
21230SOL     OW75748   5.776   9.273   9.645
21230SOL    HW175749   5.851   9.335   9.666
21230SOL    HW275750   5.696   9.298   9.699
21231SOL     OW75751   7.259   9.418   0.044
21231SOL    HW175752   7.205   9.433   0.127
21231SOL    HW275753   7.352   9.390   0.069
21232SOL     OW75754   6.840   9.907   9.526
21232SOL    HW175755   6.842   9.996   9.572
21232SOL    HW275756   6.775   9.910   9.450
21233SOL     OW75757   6.083   9.985   9.579
21233SOL    HW175758   6.081   0.025   9.488
21233SOL    HW275759   5.990   9.968   9.611
21234SOL     OW75760   5.557   9.373   9.777
21234SOL    HW175761   5.465   9.338   9.761
21234SOL    HW275762   5.576   9.374   9.875
21235SOL     OW75763   7.241   9.654   9.913
21235SOL    HW175764   7.263   9.724   9.981
21235SOL    HW275765   7.241   9.564   9.956
21236SOL     OW75766   6.341   9.360   9.342
21236SOL    HW175767   6.415   9.295   9.359
21236SOL    HW275768   6.364   9.448   9.383
21237SOL     OW75769   6.046   9.604   9.903
21237SOL    HW175770   6.143   9.583   9.906
21237SOL    HW275771   6.030   9.697   9.936
21238SOL     OW75772   6.243   9.458   9.657
21238SOL    HW175773   6.144   9.452   9.653
21238SOL    HW275774   6.271   9.484   9.750
21239SOL     OW75775   7.145   9.190   9.943
21239SOL    HW175776   7.125   9.203   9.846
21239SOL    HW275777   7.186   9.273   9.981
21240SOL     OW75778   6.992   9.793   9.859
21240SOL    HW175779   6.945   9.741   9.788
21240SOL    HW275780   7.069   9.740   9.894
21241SOL     OW75781   8.465   1.472   0.761
21241SOL    HW175782   8.557   1.510   0.758
21241SOL    HW275783   8.418   1.491   0.675
21242SOL     OW75784   8.968   0.598   1.396
21242SOL    HW175785   8.869   0.598   1.409
21242SOL    HW275786   9.014   0.596   1.485
21243SOL     OW75787   7.704   0.271   0.040
21243SOL    HW175788   7.620   0.220   0.060
21243SOL    HW275789   7.706   0.294   9.943
21244SOL     OW75790   8.719   1.575   0.782
21244SOL    HW175791   8.722   1.672   0.805
21244SOL    HW275792   8.812   1.539   0.775
21245SOL     OW75793   7.975   1.485   0.439
21245SOL    HW175794   7.935   1.519   0.524
21245SOL    HW275795   8.043   1.415   0.460
21246SOL     OW75796   7.893   0.086   0.115
21246SOL    HW175797   7.986   0.101   0.082
21246SOL    HW275798   7.835   0.162   0.086
21247SOL     OW75799   8.963   1.075   1.566
21247SOL    HW175800   8.876   1.115   1.540
21247SOL    HW275801   9.037   1.122   1.518
21248SOL     OW75802   8.847   1.104   1.244
21248SOL    HW175803   8.792   1.110   1.328
21248SOL    HW275804   8.895   1.190   1.230
21249SOL     OW75805   7.849   1.233   0.690
21249SOL    HW175806   7.801   1.191   0.767
21249SOL    HW275807   7.944   1.203   0.690
21250SOL     OW75808   8.076   0.610   0.562
21250SOL    HW175809   8.106   0.686   0.504
21250SOL    HW275810   8.072   0.526   0.508
21251SOL     OW75811   8.623   0.554   1.724
21251SOL    HW175812   8.717   0.538   1.756
21251SOL    HW275813   8.569   0.471   1.738
21252SOL     OW75814   7.809   1.441   0.227
21252SOL    HW175815   7.838   1.509   0.160
21252SOL    HW275816   7.859   1.455   0.313
21253SOL     OW75817   7.688   0.799   0.524
21253SOL    HW175818   7.725   0.823   0.614
21253SOL    HW275819   7.596   0.763   0.535
21254SOL     OW75820   8.211   1.735   0.623
21254SOL    HW175821   8.255   1.662   0.572
21254SOL    HW275822   8.164   1.797   0.560
21255SOL     OW75823   9.105   1.600   0.430
21255SOL    HW175824   9.193   1.561   0.406
21255SOL    HW275825   9.070   1.653   0.353
21256SOL     OW75826   9.062   0.369   1.154
21256SOL    HW175827   9.115   0.452   1.170
21256SOL    HW275828   8.968   0.393   1.128
21257SOL     OW75829   8.433   0.390   0.295
21257SOL    HW175830   8.454   0.487   0.307
21257SOL    HW275831   8.410   0.349   0.383
21258SOL     OW75832   7.844   0.731   0.087
21258SOL    HW175833   7.844   0.828   0.062
21258SOL    HW275834   7.854   0.676   0.004
21259SOL     OW75835   8.076   1.625   0.825
21259SOL    HW175836   8.130   1.670   0.755
21259SOL    HW275837   7.998   1.579   0.783
21260SOL     OW75838   8.328   0.634   1.463
21260SOL    HW175839   8.345   0.553   1.519
21260SOL    HW275840   8.407   0.695   1.469
21261SOL     OW75841   8.975   1.492   0.811
21261SOL    HW175842   9.005   1.494   0.906
21261SOL    HW275843   9.045   1.532   0.752
21262SOL     OW75844   7.681   1.247   0.472
21262SOL    HW175845   7.738   1.243   0.554
21262SOL    HW275846   7.730   1.207   0.395
21263SOL     OW75847   8.626   0.283   0.125
21263SOL    HW175848   8.659   0.357   0.066
21263SOL    HW275849   8.558   0.320   0.189
21264SOL     OW75850   7.561   0.484   1.202
21264SOL    HW175851   7.602   0.402   1.163
21264SOL    HW275852   7.606   0.565   1.164
21265SOL     OW75853   8.904   0.837   1.216
21265SOL    HW175854   8.890   0.934   1.233
21265SOL    HW275855   8.955   0.797   1.293
21266SOL     OW75856   7.765   0.344   0.523
21266SOL    HW175857   7.695   0.314   0.589
21266SOL    HW275858   7.722   0.358   0.434
21267SOL     OW75859   8.934   1.782   1.279
21267SOL    HW175860   8.858   1.765   1.216
21267SOL    HW275861   9.020   1.783   1.227
21268SOL     OW75862   9.190   0.598   1.233
21268SOL    HW175863   9.271   0.592   1.291
21268SOL    HW275864   9.109   0.611   1.289
21269SOL     OW75865   9.187   1.767   1.153
21269SOL    HW175866   9.217   1.789   1.246
21269SOL    HW275867   9.266   1.765   1.092
21270SOL     OW75868   8.569   1.086   0.161
21270SOL    HW175869   8.552   1.014   0.228
21270SOL    HW275870   8.485   1.137   0.145
21271SOL     OW75871   8.462   0.335   1.780
21271SOL    HW175872   8.501   0.339   1.872
21271SOL    HW275873   8.362   0.334   1.787
21272SOL     OW75874   8.364   1.758   0.095
21272SOL    HW175875   8.365   1.761   9.995
21272SOL    HW275876   8.365   1.663   0.126
21273SOL     OW75877   8.092   9.915   1.729
21273SOL    HW175878   8.162   9.919   1.658
21273SOL    HW275879   8.119   9.972   1.807
21274SOL     OW75880   9.163   0.628   0.954
21274SOL    HW175881   9.100   0.702   0.934
21274SOL    HW275882   9.183   0.626   1.052
21275SOL     OW75883   8.476   1.273   1.701
21275SOL    HW175884   8.498   1.178   1.680
21275SOL    HW275885   8.380   1.290   1.683
21276SOL     OW75886   9.124   0.226   1.812
21276SOL    HW175887   9.070   0.287   1.871
21276SOL    HW275888   9.188   0.174   1.868
21277SOL     OW75889   7.440   0.709   0.596
21277SOL    HW175890   7.441   0.641   0.669
21277SOL    HW275891   7.406   0.796   0.632
21278SOL     OW75892   7.754   0.140   0.882
21278SOL    HW175893   7.733   0.042   0.886
21278SOL    HW275894   7.852   0.152   0.864
21279SOL     OW75895   7.662   0.244   1.122
21279SOL    HW175896   7.686   0.182   1.196
21279SOL    HW275897   7.704   0.211   1.037
21280SOL     OW75898   7.610   1.516   0.444
21280SOL    HW175899   7.628   1.417   0.451
21280SOL    HW275900   7.641   1.549   0.355
21281SOL     OW75901   8.897   1.376   1.242
21281SOL    HW175902   8.875   1.414   1.153
21281SOL    HW275903   8.819   1.387   1.304
21282SOL     OW75904   7.617   1.630   0.688
21282SOL    HW175905   7.524   1.636   0.724
21282SOL    HW275906   7.615   1.593   0.595
21283SOL     OW75907   9.161   1.401   1.300
21283SOL    HW175908   9.179   1.444   1.389
21283SOL    HW275909   9.062   1.391   1.288
21284SOL     OW75910   7.866   1.001   0.040
21284SOL    HW175911   7.844   1.057   9.961
21284SOL    HW275912   7.855   1.055   0.124
21285SOL     OW75913   8.428   1.089   1.165
21285SOL    HW175914   8.436   0.989   1.167
21285SOL    HW275915   8.333   1.114   1.151
21286SOL     OW75916   7.448   0.780   0.195
21286SOL    HW175917   7.534   0.739   0.226
21286SOL    HW275918   7.373   0.749   0.253
21287SOL     OW75919   8.243   1.837   1.017
21287SOL    HW175920   8.289   1.751   0.995
21287SOL    HW275921   8.170   1.819   1.083
21288SOL     OW75922   8.133   0.935   0.089
21288SOL    HW175923   8.167   0.843   0.108
21288SOL    HW275924   8.035   0.932   0.069
21289SOL     OW75925   7.523   0.308   1.420
21289SOL    HW175926   7.547   0.379   1.354
21289SOL    HW275927   7.427   0.282   1.409
21290SOL     OW75928   8.479   0.816   1.169
21290SOL    HW175929   8.558   0.770   1.130
21290SOL    HW275930   8.399   0.756   1.162
21291SOL     OW75931   8.318   1.574   0.969
21291SOL    HW175932   8.378   1.539   0.897
21291SOL    HW275933   8.223   1.571   0.938
21292SOL     OW75934   8.175   0.333   0.215
21292SOL    HW175935   8.118   0.345   0.297
21292SOL    HW275936   8.270   0.354   0.237
21293SOL     OW75937   8.358   1.305   0.188
21293SOL    HW175938   8.398   1.289   0.279
21293SOL    HW275939   8.412   1.374   0.140
21294SOL     OW75940   9.165   1.652   0.689
21294SOL    HW175941   9.117   1.732   0.723
21294SOL    HW275942   9.141   1.635   0.594
21295SOL     OW75943   8.773   1.016   0.849
21295SOL    HW175944   8.697   0.976   0.797
21295SOL    HW275945   8.736   1.080   0.917
21296SOL     OW75946   7.710   1.111   0.890
21296SOL    HW175947   7.615   1.142   0.885
21296SOL    HW275948   7.732   1.085   0.984
21297SOL     OW75949   8.315   0.983   0.517
21297SOL    HW175950   8.250   0.921   0.473
21297SOL    HW275951   8.273   1.021   0.600
21298SOL     OW75952   8.647   1.417   1.368
21298SOL    HW175953   8.695   1.492   1.414
21298SOL    HW275954   8.568   1.453   1.318
21299SOL     OW75955   7.434   0.366   0.483
21299SOL    HW175956   7.500   0.389   0.411
21299SOL    HW275957   7.482   0.349   0.569
21300SOL     OW75958   9.031   1.779   0.231
21300SOL    HW175959   9.130   1.791   0.227
21300SOL    HW275960   8.992   1.799   0.141
21301SOL     OW75961   8.198   0.793   1.284
21301SOL    HW175962   8.236   0.880   1.315
21301SOL    HW275963   8.228   0.720   1.345
21302SOL     OW75964   7.443   1.855   1.416
21302SOL    HW175965   7.394   1.942   1.416
21302SOL    HW275966   7.429   1.809   1.504
21303SOL     OW75967   8.138   0.815   0.397
21303SOL    HW175968   8.048   0.857   0.391
21303SOL    HW275969   8.160   0.770   0.311
21304SOL     OW75970   7.702   0.527   0.900
21304SOL    HW175971   7.783   0.505   0.846
21304SOL    HW275972   7.727   0.595   0.970
21305SOL     OW75973   7.646   1.777   0.190
21305SOL    HW175974   7.710   1.795   0.116
21305SOL    HW275975   7.684   1.810   0.277
21306SOL     OW75976   8.712   1.708   1.118
21306SOL    HW175977   8.726   1.760   1.033
21306SOL    HW275978   8.725   1.611   1.099
21307SOL     OW75979   7.442   1.180   0.943
21307SOL    HW175980   7.353   1.179   0.897
21307SOL    HW275981   7.439   1.116   1.020
21308SOL     OW75982   8.171   0.033   0.390
21308SOL    HW175983   8.203   9.978   0.313
21308SOL    HW275984   8.071   0.038   0.389
21309SOL     OW75985   7.413   1.153   0.488
21309SOL    HW175986   7.504   1.194   0.497
21309SOL    HW275987   7.404   1.113   0.397
21310SOL     OW75988   8.927   0.291   1.620
21310SOL    HW175989   8.900   0.373   1.671
21310SOL    HW275990   8.996   0.241   1.672
21311SOL     OW75991   8.827   0.100   0.186
21311SOL    HW175992   8.849   0.060   0.097
21311SOL    HW275993   8.752   0.164   0.176
21312SOL     OW75994   8.107   0.264   0.697
21312SOL    HW175995   8.089   0.183   0.753
21312SOL    HW275996   8.044   0.337   0.724
21313SOL     OW75997   8.714   0.692   1.082
21313SOL    HW175998   8.752   0.682   0.990
21313SOL    HW275999   8.779   0.742   1.139
21314SOL     OW76000   8.948   9.966   0.394
21314SOL    HW176001   8.894   0.021   0.330
21314SOL    HW276002   8.899   9.882   0.416
21315SOL     OW76003   7.513   1.392   1.105
21315SOL    HW176004   7.488   1.332   1.029
21315SOL    HW276005   7.440   1.392   1.173
21316SOL     OW76006   9.088   0.623   1.644
21316SOL    HW176007   9.093   0.712   1.600
21316SOL    HW276008   9.180   0.594   1.671
21317SOL     OW76009   8.793   0.432   1.159
21317SOL    HW176010   8.756   0.520   1.129
21317SOL    HW276011   8.760   0.411   1.251
21318SOL     OW76012   8.885   0.506   1.785
21318SOL    HW176013   8.959   0.557   1.742
21318SOL    HW276014   8.917   0.467   1.871
21319SOL     OW76015   8.544   0.914   0.377
21319SOL    HW176016   8.458   0.926   0.428
21319SOL    HW276017   8.618   0.959   0.427
21320SOL     OW76018   9.120   0.852   1.499
21320SOL    HW176019   9.061   0.931   1.514
21320SOL    HW276020   9.216   0.879   1.505
21321SOL     OW76021   7.544   0.365   1.690
21321SOL    HW176022   7.547   0.346   1.592
21321SOL    HW276023   7.453   0.342   1.725
21322SOL     OW76024   7.425   1.705   1.645
21322SOL    HW176025   7.516   1.712   1.687
21322SOL    HW276026   7.356   1.702   1.716
21323SOL     OW76027   7.574   0.303   0.716
21323SOL    HW176028   7.530   0.378   0.765
21323SOL    HW276029   7.625   0.246   0.781
21324SOL     OW76030   8.800   1.620   1.462
21324SOL    HW176031   8.731   1.670   1.516
21324SOL    HW276032   8.848   1.685   1.403
21325SOL     OW76033   7.677   0.663   0.286
21325SOL    HW176034   7.745   0.686   0.216
21325SOL    HW276035   7.699   0.709   0.371
21326SOL     OW76036   9.074   0.234   1.391
21326SOL    HW176037   9.016   0.262   1.467
21326SOL    HW276038   9.058   0.294   1.312
21327SOL     OW76039   7.807   1.831   0.718
21327SOL    HW176040   7.737   1.760   0.717
21327SOL    HW276041   7.842   1.845   0.625
21328SOL     OW76042   7.755   1.302   1.182
21328SOL    HW176043   7.778   1.353   1.265
21328SOL    HW276044   7.667   1.334   1.147
21329SOL     OW76045   8.665   1.472   1.748
21329SOL    HW176046   8.599   1.398   1.738
21329SOL    HW276047   8.630   1.555   1.705
21330SOL     OW76048   8.147   1.281   0.509
21330SOL    HW176049   8.150   1.221   0.429
21330SOL    HW276050   8.166   1.227   0.591
21331SOL     OW76051   7.771   0.865   0.776
21331SOL    HW176052   7.768   0.959   0.810
21331SOL    HW276053   7.863   0.828   0.787
21332SOL     OW76054   7.635   0.397   0.288
21332SOL    HW176055   7.663   0.354   0.202
21332SOL    HW276056   7.646   0.496   0.282
21333SOL     OW76057   7.448   0.542   0.816
21333SOL    HW176058   7.384   0.592   0.874
21333SOL    HW276059   7.540   0.545   0.855
21334SOL     OW76060   7.879   1.174   0.265
21334SOL    HW176061   7.978   1.166   0.273
21334SOL    HW276062   7.855   1.270   0.245
21335SOL     OW76063   8.548   0.660   9.991
21335SOL    HW176064   8.560   0.739   9.930
21335SOL    HW276065   8.618   0.592   9.971
21336SOL     OW76066   8.222   0.686   0.170
21336SOL    HW176067   8.315   0.676   0.205
21336SOL    HW276068   8.198   0.606   0.116
21337SOL     OW76069   8.698   0.577   1.466
21337SOL    HW176070   8.672   0.584   1.562
21337SOL    HW276071   8.701   0.481   1.439
21338SOL     OW76072   7.492   0.126   0.148
21338SOL    HW176073   7.522   0.032   0.130
21338SOL    HW276074   7.457   0.132   0.242
21339SOL     OW76075   7.747   1.030   1.154
21339SOL    HW176076   7.832   0.981   1.169
21339SOL    HW276077   7.759   1.126   1.179
21340SOL     OW76078   9.086   1.120   0.079
21340SOL    HW176079   9.179   1.101   0.111
21340SOL    HW276080   9.049   1.039   0.034
21341SOL     OW76081   7.961   0.853   1.163
21341SOL    HW176082   8.046   0.831   1.211
21341SOL    HW276083   7.904   0.771   1.155
21342SOL     OW76084   8.550   1.015   1.625
21342SOL    HW176085   8.537   0.940   1.560
21342SOL    HW276086   8.613   0.987   1.697
21343SOL     OW76087   8.592   1.715   1.612
21343SOL    HW176088   8.515   1.735   1.551
21343SOL    HW276089   8.599   1.787   1.681
21344SOL     OW76090   8.035   0.064   0.871
21344SOL    HW176091   8.023   9.969   0.843
21344SOL    HW276092   8.081   0.067   0.960
21345SOL     OW76093   7.699   1.838   1.322
21345SOL    HW176094   7.694   1.770   1.250
21345SOL    HW276095   7.608   1.849   1.363
21346SOL     OW76096   8.399   1.235   0.878
21346SOL    HW176097   8.420   1.322   0.833
21346SOL    HW276098   8.477   1.206   0.932
21347SOL     OW76099   8.065   0.970   0.933
21347SOL    HW176100   8.062   0.890   0.872
21347SOL    HW276101   8.027   0.945   1.022
21348SOL     OW76102   7.474   0.988   1.142
21348SOL    HW176103   7.571   1.006   1.158
21348SOL    HW276104   7.464   0.924   1.066
21349SOL     OW76105   7.605   9.939   0.468
21349SOL    HW176106   7.593   9.902   0.560
21349SOL    HW276107   7.535   0.007   0.450
21350SOL     OW76108   8.026   0.669   1.815
21350SOL    HW176109   8.074   0.733   1.756
21350SOL    HW276110   8.092   0.614   1.866
21351SOL     OW76111   7.441   1.061   0.221
21351SOL    HW176112   7.455   0.964   0.199
21351SOL    HW276113   7.506   1.116   0.169
21352SOL     OW76114   9.194   0.252   0.731
21352SOL    HW176115   9.196   0.176   0.797
21352SOL    HW276116   9.261   0.321   0.759
21353SOL     OW76117   8.187   1.184   1.055
21353SOL    HW176118   8.141   1.108   1.008
21353SOL    HW276119   8.259   1.221   0.995
21354SOL     OW76120   8.481   0.666   0.259
21354SOL    HW176121   8.515   0.748   0.306
21354SOL    HW276122   8.517   0.665   0.165
21355SOL     OW76123   8.930   1.508   1.674
21355SOL    HW176124   8.854   1.473   1.727
21355SOL    HW276125   8.896   1.548   1.588
21356SOL     OW76126   8.102   1.375   0.076
21356SOL    HW176127   8.071   1.468   0.096
21356SOL    HW276128   8.192   1.360   0.117
21357SOL     OW76129   8.011   1.666   1.086
21357SOL    HW176130   8.027   1.667   0.987
21357SOL    HW276131   8.009   1.572   1.118
21358SOL     OW76132   8.196   1.118   0.732
21358SOL    HW176133   8.273   1.162   0.777
21358SOL    HW276134   8.144   1.064   0.798
21359SOL     OW76135   8.326   1.501   0.523
21359SOL    HW176136   8.398   1.498   0.453
21359SOL    HW276137   8.268   1.420   0.513
21360SOL     OW76138   7.522   0.851   0.897
21360SOL    HW176139   7.608   0.849   0.845
21360SOL    HW276140   7.448   0.884   0.839
21361SOL     OW76141   7.515   0.988   1.852
21361SOL    HW176142   7.456   0.974   1.773
21361SOL    HW276143   7.493   0.920   1.923
21362SOL     OW76144   8.397   1.771   1.415
21362SOL    HW176145   8.401   1.698   1.347
21362SOL    HW276146   8.307   1.814   1.414
21363SOL     OW76147   8.655   1.174   1.053
21363SOL    HW176148   8.570   1.151   1.100
21363SOL    HW276149   8.733   1.148   1.111
21364SOL     OW76150   7.894   0.926   0.393
21364SOL    HW176151   7.869   1.013   0.352
21364SOL    HW276152   7.814   0.885   0.436
21365SOL     OW76153   8.964   0.826   0.945
21365SOL    HW176154   8.911   0.898   0.899
21365SOL    HW276155   8.952   0.835   1.044
21366SOL     OW76156   8.739   0.312   1.417
21366SOL    HW176157   8.800   0.299   1.495
21366SOL    HW276158   8.754   0.240   1.350
21367SOL     OW76159   7.398   0.108   0.406
21367SOL    HW176160   7.311   0.069   0.438
21367SOL    HW276161   7.404   0.203   0.436
21368SOL     OW76162   8.598   0.090   1.760
21368SOL    HW176163   8.657   0.087   1.679
21368SOL    HW276164   8.546   0.176   1.760
21369SOL     OW76165   9.185   1.486   1.563
21369SOL    HW176166   9.228   1.573   1.587
21369SOL    HW276167   9.095   1.481   1.607
21370SOL     OW76168   7.865   1.508   0.694
21370SOL    HW176169   7.855   1.408   0.698
21370SOL    HW276170   7.775   1.551   0.703
21371SOL     OW76171   8.464   1.594   1.209
21371SOL    HW176172   8.402   1.574   1.133
21371SOL    HW276173   8.547   1.637   1.174
21372SOL     OW76174   7.670   1.731   1.757
21372SOL    HW176175   7.750   1.757   1.703
21372SOL    HW276176   7.693   1.733   1.854
21373SOL     OW76177   7.630   1.646   1.112
21373SOL    HW176178   7.593   1.553   1.104
21373SOL    HW276179   7.709   1.655   1.051
21374SOL     OW76180   8.450   1.207   0.428
21374SOL    HW176181   8.541   1.198   0.468
21374SOL    HW276182   8.393   1.131   0.458
21375SOL     OW76183   8.994   0.434   0.834
21375SOL    HW176184   9.053   0.504   0.875
21375SOL    HW276185   9.051   0.369   0.782
21376SOL     OW76186   8.153   1.139   0.273
21376SOL    HW176187   8.227   1.197   0.240
21376SOL    HW276188   8.152   1.053   0.220
21377SOL     OW76189   8.165   0.105   0.069
21377SOL    HW176190   8.198   0.020   0.109
21377SOL    HW276191   8.176   0.180   0.134
21378SOL     OW76192   7.910   0.465   0.725
21378SOL    HW176193   7.849   0.418   0.662
21378SOL    HW276194   7.968   0.529   0.674
21379SOL     OW76195   9.186   1.151   1.420
21379SOL    HW176196   9.185   1.237   1.367
21379SOL    HW276197   9.242   1.084   1.371
21380SOL     OW76198   7.603   1.294   0.123
21380SOL    HW176199   7.512   1.336   0.129
21380SOL    HW276200   7.668   1.351   0.172
21381SOL     OW76201   8.027   1.622   0.189
21381SOL    HW176202   8.022   1.722   0.183
21381SOL    HW276203   8.026   1.595   0.285
21382SOL     OW76204   8.719   1.171   1.474
21382SOL    HW176205   8.651   1.123   1.529
21382SOL    HW276206   8.683   1.261   1.447
21383SOL     OW76207   7.876   1.818   1.550
21383SOL    HW176208   7.966   1.825   1.507
21383SOL    HW276209   7.805   1.823   1.479
21384SOL     OW76210   7.537   0.617   1.806
21384SOL    HW176211   7.557   0.527   1.767
21384SOL    HW276212   7.622   0.659   1.838
21385SOL     OW76213   9.085   1.529   1.058
21385SOL    HW176214   9.111   1.624   1.074
21385SOL    HW276215   9.109   1.474   1.138
21386SOL     OW76216   7.357   0.953   0.685
21386SOL    HW176217   7.387   1.024   0.623
21386SOL    HW276218   7.257   0.955   0.692
21387SOL     OW76219   8.002   1.390   1.094
21387SOL    HW176220   7.913   1.347   1.110
21387SOL    HW276221   8.072   1.320   1.088
21388SOL     OW76222   7.674   0.726   1.095
21388SOL    HW176223   7.678   0.794   1.168
21388SOL    HW276224   7.615   0.759   1.022
21389SOL     OW76225   9.028   1.754   1.772
21389SOL    HW176226   8.994   1.660   1.766
21389SOL    HW276227   9.002   1.803   1.689
21390SOL     OW76228   8.706   1.111   0.515
21390SOL    HW176229   8.765   1.116   0.596
21390SOL    HW276230   8.753   1.153   0.438
21391SOL     OW76231   8.030   0.362   0.446
21391SOL    HW176232   7.931   0.349   0.456
21391SOL    HW276233   8.077   0.308   0.515
21392SOL     OW76234   8.545   0.806   1.439
21392SOL    HW176235   8.615   0.735   1.445
21392SOL    HW276236   8.529   0.830   1.343
21393SOL     OW76237   8.021   0.741   0.797
21393SOL    HW176238   8.019   0.661   0.857
21393SOL    HW276239   8.049   0.712   0.705
21394SOL     OW76240   8.726   1.448   1.031
21394SOL    HW176241   8.692   1.354   1.036
21394SOL    HW276242   8.723   1.479   0.936
21395SOL     OW76243   9.095   1.367   2.366
21395SOL    HW176244   9.054   1.356   2.457
21395SOL    HW276245   9.154   1.288   2.347
21396SOL     OW76246   7.682   0.215   1.875
21396SOL    HW176247   7.610   0.148   1.896
21396SOL    HW276248   7.652   0.273   1.800
21397SOL     OW76249   8.760   1.579   2.758
21397SOL    HW176250   8.769   1.676   2.736
21397SOL    HW276251   8.833   1.527   2.713
21398SOL     OW76252   8.549   0.131   3.223
21398SOL    HW176253   8.497   0.066   3.280
21398SOL    HW276254   8.626   0.083   3.180
21399SOL     OW76255   8.001   1.459   2.287
21399SOL    HW176256   7.950   1.494   2.365
21399SOL    HW276257   8.064   1.387   2.317
21400SOL     OW76258   7.885   0.062   1.982
21400SOL    HW176259   7.979   0.084   1.956
21400SOL    HW276260   7.823   0.128   1.939
21401SOL     OW76261   8.368   1.363   3.323
21401SOL    HW176262   8.287   1.422   3.312
21401SOL    HW276263   8.353   1.277   3.275
21402SOL     OW76264   7.832   1.250   2.562
21402SOL    HW176265   7.770   1.208   2.627
21402SOL    HW276266   7.925   1.215   2.577
21403SOL     OW76267   7.825   1.333   2.114
21403SOL    HW176268   7.820   1.394   2.034
21403SOL    HW276269   7.896   1.366   2.175
21404SOL     OW76270   7.888   0.274   2.863
21404SOL    HW176271   7.951   0.351   2.852
21404SOL    HW276272   7.933   0.189   2.836
21405SOL     OW76273   7.636   0.797   2.317
21405SOL    HW176274   7.682   0.848   2.391
21405SOL    HW276275   7.553   0.755   2.352
21406SOL     OW76276   9.181   1.619   2.300
21406SOL    HW176277   9.276   1.602   2.272
21406SOL    HW276278   9.132   1.532   2.307
21407SOL     OW76279   8.986   0.374   2.960
21407SOL    HW176280   9.022   0.430   2.885
21407SOL    HW276281   8.886   0.380   2.960
21408SOL     OW76282   8.422   0.330   2.243
21408SOL    HW176283   8.476   0.402   2.287
21408SOL    HW276284   8.376   0.276   2.313
21409SOL     OW76285   7.535   1.028   3.449
21409SOL    HW176286   7.629   1.055   3.471
21409SOL    HW276287   7.492   0.989   3.530
21410SOL     OW76288   7.775   0.735   1.896
21410SOL    HW176289   7.778   0.835   1.899
21410SOL    HW276290   7.863   0.700   1.863
21411SOL     OW76291   8.090   1.570   2.639
21411SOL    HW176292   8.144   1.637   2.588
21411SOL    HW276293   8.004   1.554   2.591
21412SOL     OW76294   8.427   0.597   3.529
21412SOL    HW176295   8.390   0.510   3.561
21412SOL    HW276296   8.351   0.656   3.500
21413SOL     OW76297   9.003   1.449   2.674
21413SOL    HW176298   9.015   1.455   2.773
21413SOL    HW276299   9.058   1.520   2.630
21414SOL     OW76300   7.667   1.299   2.339
21414SOL    HW176301   7.726   1.273   2.415
21414SOL    HW276302   7.717   1.292   2.253
21415SOL     OW76303   8.577   0.339   2.020
21415SOL    HW176304   8.657   0.279   2.022
21415SOL    HW276305   8.522   0.324   2.102
21416SOL     OW76306   7.762   0.572   3.008
21416SOL    HW176307   7.748   0.478   3.038
21416SOL    HW276308   7.676   0.623   3.014
21417SOL     OW76309   7.759   0.274   2.337
21417SOL    HW176310   7.707   0.313   2.413
21417SOL    HW276311   7.719   0.302   2.250
21418SOL     OW76312   8.924   1.749   3.169
21418SOL    HW176313   8.847   1.751   3.105
21418SOL    HW276314   9.009   1.737   3.118
21419SOL     OW76315   9.231   0.656   2.975
21419SOL    HW176316   9.308   0.720   2.980
21419SOL    HW276317   9.225   0.605   3.061
21420SOL     OW76318   9.167   1.716   3.026
21420SOL    HW176319   9.207   1.757   3.108
21420SOL    HW276320   9.240   1.694   2.961
21421SOL     OW76321   8.595   0.823   2.122
21421SOL    HW176322   8.614   0.920   2.106
21421SOL    HW276323   8.551   0.783   2.042
21422SOL     OW76324   8.371   0.363   3.669
21422SOL    HW176325   8.439   0.389   3.737
21422SOL    HW276326   8.294   0.318   3.713
21423SOL     OW76327   9.128   0.676   2.211
21423SOL    HW176328   9.080   0.590   2.225
21423SOL    HW276329   9.194   0.689   2.285
21424SOL     OW76330   8.184   0.108   3.568
21424SOL    HW176331   8.234   0.026   3.542
21424SOL    HW276332   8.195   0.124   3.666
21425SOL     OW76333   9.114   0.654   2.734
21425SOL    HW176334   9.080   0.746   2.712
21425SOL    HW276335   9.151   0.653   2.827
21426SOL     OW76336   8.495   1.361   3.588
21426SOL    HW176337   8.584   1.317   3.580
21426SOL    HW276338   8.449   1.358   3.499
21427SOL     OW76339   8.150   1.202   3.612
21427SOL    HW176340   8.078   1.271   3.612
21427SOL    HW276341   8.218   1.225   3.682
21428SOL     OW76342   8.771   9.996   2.747
21428SOL    HW176343   8.714   0.077   2.747
21428SOL    HW276344   8.859   0.017   2.704
21429SOL     OW76345   9.103   0.195   3.599
21429SOL    HW176346   9.047   0.231   3.673
21429SOL    HW276347   9.055   0.209   3.512
21430SOL     OW76348   7.408   0.717   2.440
21430SOL    HW176349   7.424   0.651   2.513
21430SOL    HW276350   7.386   0.806   2.480
21431SOL     OW76351   7.667   0.184   2.720
21431SOL    HW176352   7.747   0.223   2.767
21431SOL    HW276353   7.671   0.084   2.725
21432SOL     OW76354   7.715   0.292   3.073
21432SOL    HW176355   7.712   0.208   3.127
21432SOL    HW276356   7.779   0.282   2.998
21433SOL     OW76357   7.565   1.551   2.268
21433SOL    HW176358   7.596   1.457   2.285
21433SOL    HW276359   7.608   1.586   2.185
21434SOL     OW76360   8.895   1.351   3.144
21434SOL    HW176361   8.907   1.398   3.056
21434SOL    HW276362   8.800   1.359   3.173
21435SOL     OW76363   7.637   1.697   2.492
21435SOL    HW176364   7.575   1.775   2.497
21435SOL    HW276365   7.612   1.639   2.414
21436SOL     OW76366   9.171   1.355   3.160
21436SOL    HW176367   9.203   1.398   3.245
21436SOL    HW276368   9.074   1.333   3.168
21437SOL     OW76369   7.781   1.011   1.908
21437SOL    HW176370   7.685   1.012   1.878
21437SOL    HW276371   7.801   1.095   1.958
21438SOL     OW76372   8.286   1.121   3.177
21438SOL    HW176373   8.325   1.036   3.142
21438SOL    HW276374   8.234   1.167   3.106
21439SOL     OW76375   7.463   0.856   2.099
21439SOL    HW176376   7.538   0.839   2.163
21439SOL    HW276377   7.388   0.794   2.118
21440SOL     OW76378   8.990   0.912   2.265
21440SOL    HW176379   9.031   0.824   2.242
21440SOL    HW276380   9.008   0.977   2.191
21441SOL     OW76381   8.258   1.815   2.838
21441SOL    HW176382   8.330   1.780   2.897
21441SOL    HW276383   8.171   1.771   2.860
21442SOL     OW76384   8.248   0.851   1.907
21442SOL    HW176385   8.211   0.768   1.947
21442SOL    HW276386   8.196   0.930   1.939
21443SOL     OW76387   8.769   0.377   2.308
21443SOL    HW176388   8.714   0.450   2.268
21443SOL    HW276389   8.866   0.398   2.296
21444SOL     OW76390   7.631   0.651   3.333
21444SOL    HW176391   7.603   0.562   3.299
21444SOL    HW276392   7.615   0.656   3.432
21445SOL     OW76393   7.550   0.389   3.273
21445SOL    HW176394   7.609   0.359   3.198
21445SOL    HW276395   7.455   0.365   3.252
21446SOL     OW76396   8.311   0.862   3.053
21446SOL    HW176397   8.367   0.784   3.023
21446SOL    HW276398   8.241   0.830   3.117
21447SOL     OW76399   9.040   0.426   2.301
21447SOL    HW176400   9.130   0.384   2.287
21447SOL    HW276401   9.026   0.440   2.399
21448SOL     OW76402   8.229   1.358   2.745
21448SOL    HW176403   8.325   1.383   2.753
21448SOL    HW276404   8.177   1.435   2.708
21449SOL     OW76405   8.211   0.314   2.074
21449SOL    HW176406   8.130   0.320   2.132
21449SOL    HW276407   8.293   0.317   2.131
21450SOL     OW76408   9.154   1.652   2.569
21450SOL    HW176409   9.109   1.738   2.592
21450SOL    HW276410   9.158   1.642   2.470
21451SOL     OW76411   8.232   1.651   3.484
21451SOL    HW176412   8.181   1.595   3.418
21451SOL    HW276413   8.237   1.603   3.571
21452SOL     OW76414   7.670   1.119   2.735
21452SOL    HW176415   7.579   1.159   2.735
21452SOL    HW276416   7.693   1.089   2.828
21453SOL     OW76417   8.637   1.421   3.223
21453SOL    HW176418   8.680   1.490   3.281
21453SOL    HW276419   8.543   1.405   3.255
21454SOL     OW76420   7.426   0.325   2.294
21454SOL    HW176421   7.491   0.341   2.219
21454SOL    HW276422   7.473   0.335   2.381
21455SOL     OW76423   9.029   1.857   2.033
21455SOL    HW176424   9.125   1.882   2.049
21455SOL    HW276425   9.022   1.799   1.952
21456SOL     OW76426   8.128   0.750   3.222
21456SOL    HW176427   8.033   0.767   3.247
21456SOL    HW276428   8.182   0.735   3.306
21457SOL     OW76429   7.467   1.857   3.259
21457SOL    HW176430   7.416   1.943   3.258
21457SOL    HW276431   7.452   1.810   3.346
21458SOL     OW76432   7.719   0.591   2.732
21458SOL    HW176433   7.794   0.569   2.670
21458SOL    HW276434   7.750   0.582   2.827
21459SOL     OW76435   7.671   1.716   2.061
21459SOL    HW176436   7.760   1.672   2.053
21459SOL    HW276437   7.677   1.791   2.127
21460SOL     OW76438   8.712   1.737   2.987
21460SOL    HW176439   8.737   1.801   2.915
21460SOL    HW276440   8.718   1.643   2.951
21461SOL     OW76441   7.415   1.219   2.792
21461SOL    HW176442   7.329   1.217   2.741
21461SOL    HW276443   7.411   1.151   2.866
21462SOL     OW76444   8.164   9.945   2.291
21462SOL    HW176445   8.214   9.911   2.212
21462SOL    HW276446   8.066   9.935   2.275
21463SOL     OW76447   7.408   1.182   2.367
21463SOL    HW176448   7.494   1.230   2.382
21463SOL    HW276449   7.398   1.159   2.270
21464SOL     OW76450   8.633   0.234   2.753
21464SOL    HW176451   8.665   0.293   2.678
21464SOL    HW276452   8.662   0.272   2.840
21465SOL     OW76453   8.787   0.159   2.035
21465SOL    HW176454   8.777   0.086   1.968
21465SOL    HW276455   8.773   0.122   2.127
21466SOL     OW76456   8.970   0.201   3.355
21466SOL    HW176457   8.962   0.102   3.340
21466SOL    HW276458   8.887   0.246   3.323
21467SOL     OW76459   8.181   0.203   2.657
21467SOL    HW176460   8.110   0.146   2.697
21467SOL    HW276461   8.249   0.226   2.726
21468SOL     OW76462   8.973   9.990   2.374
21468SOL    HW176463   8.981   9.891   2.374
21468SOL    HW276464   8.880   0.016   2.347
21469SOL     OW76465   7.971   1.422   3.631
21469SOL    HW176466   7.922   1.483   3.568
21469SOL    HW276467   8.057   1.465   3.659
21470SOL     OW76468   7.784   1.107   3.513
21470SOL    HW176469   7.843   1.094   3.434
21470SOL    HW276470   7.817   1.185   3.567
21471SOL     OW76471   7.494   1.417   2.969
21471SOL    HW176472   7.470   1.356   2.893
21471SOL    HW276473   7.417   1.422   3.033
21472SOL     OW76474   8.556   0.544   2.762
21472SOL    HW176475   8.626   0.511   2.698
21472SOL    HW276476   8.474   0.570   2.711
21473SOL     OW76477   8.712   0.385   2.971
21473SOL    HW176478   8.651   0.456   2.937
21473SOL    HW276479   8.705   0.379   3.071
21474SOL     OW76480   8.952   0.992   2.519
21474SOL    HW176481   8.960   0.966   2.423
21474SOL    HW276482   8.857   0.980   2.549
21475SOL     OW76483   8.969   0.364   2.007
21475SOL    HW176484   9.004   0.388   2.097
21475SOL    HW276485   8.903   0.289   2.016
21476SOL     OW76486   8.102   1.513   3.288
21476SOL    HW176487   8.045   1.592   3.265
21476SOL    HW276488   8.062   1.430   3.249
21477SOL     OW76489   7.542   0.345   3.547
21477SOL    HW176490   7.541   0.359   3.448
21477SOL    HW276491   7.451   0.317   3.577
21478SOL     OW76492   7.439   1.713   3.494
21478SOL    HW176493   7.524   1.727   3.545
21478SOL    HW276494   7.362   1.715   3.557
21479SOL     OW76495   7.564   0.343   2.528
21479SOL    HW176496   7.528   0.425   2.573
21479SOL    HW276497   7.604   0.282   2.596
21480SOL     OW76498   8.777   1.612   3.363
21480SOL    HW176499   8.713   1.678   3.403
21480SOL    HW276500   8.834   1.658   3.295
21481SOL     OW76501   7.706   0.605   2.128
21481SOL    HW176502   7.731   0.653   2.043
21481SOL    HW276503   7.686   0.673   2.199
21482SOL     OW76504   9.142   0.262   3.147
21482SOL    HW176505   9.088   0.239   3.228
21482SOL    HW276506   9.083   0.306   3.079
21483SOL     OW76507   7.871   1.857   2.549
21483SOL    HW176508   7.796   1.793   2.532
21483SOL    HW276509   7.913   1.882   2.461
21484SOL     OW76510   7.716   1.317   3.100
21484SOL    HW176511   7.711   1.346   3.196
21484SOL    HW276512   7.641   1.359   3.048
21485SOL     OW76513   8.549   1.623   3.677
21485SOL    HW176514   8.521   1.530   3.652
21485SOL    HW276515   8.562   1.678   3.594
21486SOL     OW76516   8.144   1.246   2.384
21486SOL    HW176517   8.202   1.184   2.331
21486SOL    HW276518   8.122   1.204   2.472
21487SOL     OW76519   7.730   0.910   2.557
21487SOL    HW176520   7.711   0.990   2.614
21487SOL    HW276521   7.829   0.900   2.546
21488SOL     OW76522   7.627   0.350   2.111
21488SOL    HW176523   7.652   0.307   2.024
21488SOL    HW276524   7.655   0.446   2.110
21489SOL     OW76525   7.459   0.560   2.658
21489SOL    HW176526   7.389   0.608   2.710
21489SOL    HW276527   7.549   0.582   2.695
21490SOL     OW76528   8.479   0.697   1.911
21490SOL    HW176529   8.412   0.765   1.881
21490SOL    HW276530   8.531   0.665   1.832
21491SOL     OW76531   8.235   0.562   1.954
21491SOL    HW176532   8.331   0.589   1.956
21491SOL    HW276533   8.225   0.473   1.998
21492SOL     OW76534   8.719   0.109   2.305
21492SOL    HW176535   8.647   0.095   2.373
21492SOL    HW276536   8.745   0.206   2.303
21493SOL     OW76537   8.677   0.499   3.458
21493SOL    HW176538   8.745   0.565   3.490
21493SOL    HW276539   8.585   0.535   3.473
21494SOL     OW76540   7.469   0.070   1.967
21494SOL    HW176541   7.451   9.976   1.996
21494SOL    HW276542   7.447   0.133   2.041
21495SOL     OW76543   7.687   1.059   3.008
21495SOL    HW176544   7.684   0.995   3.084
21495SOL    HW276545   7.708   1.151   3.042
21496SOL     OW76546   9.060   1.072   2.055
21496SOL    HW176547   9.160   1.072   2.046
21496SOL    HW276548   9.023   1.155   2.013
21497SOL     OW76549   8.003   0.711   2.970
21497SOL    HW176550   8.055   0.720   3.055
21497SOL    HW276551   7.914   0.670   2.989
21498SOL     OW76552   8.189   1.018   3.416
21498SOL    HW176553   8.235   1.060   3.338
21498SOL    HW276554   8.180   1.086   3.490
21499SOL     OW76555   8.523   0.124   2.492
21499SOL    HW176556   8.538   0.126   2.591
21499SOL    HW276557   8.425   0.131   2.472
21500SOL     OW76558   8.577   1.779   3.456
21500SOL    HW176559   8.503   1.775   3.389
21500SOL    HW276560   8.591   1.873   3.485
21501SOL     OW76561   8.001   0.040   2.782
21501SOL    HW176562   7.973   9.974   2.713
21501SOL    HW276563   8.019   9.992   2.868
21502SOL     OW76564   7.700   1.834   3.112
21502SOL    HW176565   7.672   1.781   3.032
21502SOL    HW276566   7.622   1.844   3.174
21503SOL     OW76567   8.132   0.947   2.854
21503SOL    HW176568   8.213   0.926   2.908
21503SOL    HW276569   8.063   0.876   2.868
21504SOL     OW76570   7.415   1.023   2.979
21504SOL    HW176571   7.514   1.026   2.989
21504SOL    HW276572   7.390   0.947   2.918
21505SOL     OW76573   7.665   0.015   2.340
21505SOL    HW176574   7.698   0.108   2.352
21505SOL    HW276575   7.565   0.014   2.340
21506SOL     OW76576   7.423   1.125   2.097
21506SOL    HW176577   7.440   1.026   2.103
21506SOL    HW276578   7.469   1.161   2.015
21507SOL     OW76579   9.207   0.257   2.660
21507SOL    HW176580   9.236   0.256   2.756
21507SOL    HW276581   9.287   0.258   2.601
21508SOL     OW76582   8.142   1.205   2.957
21508SOL    HW176583   8.128   1.114   2.918
21508SOL    HW276584   8.174   1.267   2.886
21509SOL     OW76585   8.605   0.562   2.201
21509SOL    HW176586   8.604   0.661   2.192
21509SOL    HW276587   8.591   0.520   2.111
21510SOL     OW76588   8.956   1.465   3.512
21510SOL    HW176589   8.910   1.382   3.543
21510SOL    HW276590   8.895   1.517   3.452
21511SOL     OW76591   7.601   0.892   3.214
21511SOL    HW176592   7.602   0.801   3.254
21511SOL    HW276593   7.575   0.959   3.283
21512SOL     OW76594   8.026   1.683   2.882
21512SOL    HW176595   8.039   1.631   2.798
21512SOL    HW276596   7.952   1.641   2.935
21513SOL     OW76597   8.087   1.147   2.637
21513SOL    HW176598   8.142   1.222   2.675
21513SOL    HW276599   8.100   1.065   2.692
21514SOL     OW76600   7.507   0.850   2.749
21514SOL    HW176601   7.594   0.836   2.702
21514SOL    HW276602   7.442   0.894   2.687
21515SOL     OW76603   7.408   0.927   3.661
21515SOL    HW176604   7.308   0.926   3.655
21515SOL    HW276605   7.437   0.876   3.742
21516SOL     OW76606   8.354   1.797   3.283
21516SOL    HW176607   8.316   1.738   3.355
21516SOL    HW276608   8.287   1.865   3.256
21517SOL     OW76609   7.946   0.466   3.634
21517SOL    HW176610   8.000   0.406   3.575
21517SOL    HW276611   7.932   0.554   3.588
21518SOL     OW76612   7.938   0.791   2.331
21518SOL    HW176613   7.860   0.813   2.273
21518SOL    HW276614   7.934   0.695   2.357
21519SOL     OW76615   8.738   0.326   3.257
21519SOL    HW176616   8.717   0.394   3.327
21519SOL    HW276617   8.663   0.261   3.251
21520SOL     OW76618   7.386   0.055   2.306
21520SOL    HW176619   7.292   0.033   2.335
21520SOL    HW276620   7.398   0.154   2.303
21521SOL     OW76621   8.517   0.136   3.607
21521SOL    HW176622   8.614   0.160   3.606
21521SOL    HW276623   8.461   0.219   3.613
21522SOL     OW76624   7.835   1.611   3.478
21522SOL    HW176625   7.777   1.670   3.534
21522SOL    HW276626   7.873   1.663   3.401
21523SOL     OW76627   9.222   1.469   3.415
21523SOL    HW176628   9.254   1.562   3.431
21523SOL    HW276629   9.128   1.460   3.447
21524SOL     OW76630   8.418   0.614   2.990
21524SOL    HW176631   8.469   0.597   2.906
21524SOL    HW276632   8.411   0.530   3.044
21525SOL     OW76633   7.856   1.520   2.514
21525SOL    HW176634   7.833   1.425   2.535
21525SOL    HW276635   7.772   1.576   2.515
21526SOL     OW76636   8.427   1.706   3.019
21526SOL    HW176637   8.400   1.709   3.115
21526SOL    HW276638   8.526   1.695   3.012
21527SOL     OW76639   7.669   1.769   3.641
21527SOL    HW176640   7.692   1.866   3.643
21527SOL    HW276641   7.669   1.733   3.734
21528SOL     OW76642   7.504   1.301   3.515
21528SOL    HW176643   7.498   1.206   3.485
21528SOL    HW276644   7.434   1.356   3.469
21529SOL     OW76645   7.581   1.672   2.909
21529SOL    HW176646   7.558   1.577   2.930
21529SOL    HW276647   7.596   1.681   2.811
21530SOL     OW76648   8.372   0.229   2.849
21530SOL    HW176649   8.464   0.232   2.810
21530SOL    HW276650   8.357   0.139   2.890
21531SOL     OW76651   9.022   0.446   2.581
21531SOL    HW176652   9.049   0.529   2.630
21531SOL    HW276653   9.081   0.370   2.607
21532SOL     OW76654   8.163   0.068   1.948
21532SOL    HW176655   8.211   9.994   1.996
21532SOL    HW276656   8.188   0.156   1.990
21533SOL     OW76657   7.944   1.065   3.298
21533SOL    HW176658   8.032   1.038   3.336
21533SOL    HW276659   7.955   1.150   3.247
21534SOL     OW76660   7.922   1.618   2.067
21534SOL    HW176661   7.947   1.715   2.062
21534SOL    HW276662   7.969   1.575   2.143
21535SOL     OW76663   7.933   1.746   3.252
21535SOL    HW176664   7.999   1.821   3.248
21535SOL    HW276665   7.852   1.771   3.199
21536SOL     OW76666   7.567   0.614   3.600
21536SOL    HW176667   7.569   0.514   3.598
21536SOL    HW276668   7.606   0.647   3.686
21537SOL     OW76669   9.049   1.483   2.940
21537SOL    HW176670   9.074   1.578   2.958
21537SOL    HW276671   9.100   1.422   3.001
21538SOL     OW76672   7.350   0.964   2.542
21538SOL    HW176673   7.380   1.041   2.487
21538SOL    HW276674   7.250   0.964   2.548
21539SOL     OW76675   7.876   0.794   3.300
21539SOL    HW176676   7.786   0.752   3.292
21539SOL    HW276677   7.869   0.893   3.286
21540SOL     OW76678   9.089   1.188   2.670
21540SOL    HW176679   9.046   1.279   2.674
21540SOL    HW276680   9.029   1.125   2.620
21541SOL     OW76681   8.069   0.478   2.836
21541SOL    HW176682   8.167   0.464   2.820
21541SOL    HW276683   8.054   0.567   2.879
21542SOL     OW76684   7.985   1.299   3.157
21542SOL    HW176685   7.890   1.312   3.128
21542SOL    HW276686   8.039   1.270   3.078
21543SOL     OW76687   7.530   0.726   2.998
21543SOL    HW176688   7.547   0.798   3.066
21543SOL    HW276689   7.526   0.767   2.907
21544SOL     OW76690   7.708   1.398   3.356
21544SOL    HW176691   7.756   1.475   3.398
21544SOL    HW276692   7.640   1.362   3.420
21545SOL     OW76693   9.039   1.703   3.637
21545SOL    HW176694   9.011   1.611   3.610
21545SOL    HW276695   9.008   1.769   3.568
21546SOL     OW76696   8.026   0.314   2.281
21546SOL    HW176697   7.932   0.283   2.299
21546SOL    HW276698   8.090   0.258   2.334
21547SOL     OW76699   9.013   0.063   2.637
21547SOL    HW176700   9.004   0.040   2.540
21547SOL    HW276701   9.082   0.134   2.648
21548SOL     OW76702   8.742   0.420   2.582
21548SOL    HW176703   8.728   0.401   2.484
21548SOL    HW276704   8.840   0.433   2.599
21549SOL     OW76705   8.470   1.458   4.425
21549SOL    HW176706   8.563   1.494   4.434
21549SOL    HW276707   8.433   1.483   4.335
21550SOL     OW76708   8.969   1.299   4.251
21550SOL    HW176709   8.970   1.355   4.333
21550SOL    HW276710   9.058   1.302   4.206
21551SOL     OW76711   9.002   0.634   5.097
21551SOL    HW176712   8.910   0.617   5.131
21551SOL    HW276713   9.066   0.636   5.173
21552SOL     OW76714   7.740   0.319   3.733
21552SOL    HW176715   7.668   0.314   3.664
21552SOL    HW276716   7.815   0.377   3.699
21553SOL     OW76717   8.718   1.566   4.500
21553SOL    HW176718   8.736   1.663   4.515
21553SOL    HW276719   8.805   1.517   4.494
21554SOL     OW76720   8.488   0.147   5.086
21554SOL    HW176721   8.501   0.117   5.180
21554SOL    HW276722   8.464   0.068   5.029
21555SOL     OW76723   8.357   0.873   5.433
21555SOL    HW176724   8.323   0.857   5.341
21555SOL    HW276725   8.283   0.907   5.490
21556SOL     OW76726   7.943   1.493   4.103
21556SOL    HW176727   7.895   1.522   4.186
21556SOL    HW276728   8.017   1.430   4.127
21557SOL     OW76729   7.922   0.120   3.793
21557SOL    HW176730   8.009   0.170   3.792
21557SOL    HW276731   7.847   0.182   3.773
21558SOL     OW76732   8.951   1.096   5.229
21558SOL    HW176733   8.853   1.100   5.209
21558SOL    HW276734   9.003   1.110   5.145
21559SOL     OW76735   8.764   1.124   4.903
21559SOL    HW176736   8.731   1.099   4.994
21559SOL    HW276737   8.799   1.217   4.905
21560SOL     OW76738   8.350   1.374   5.158
21560SOL    HW176739   8.269   1.431   5.148
21560SOL    HW276740   8.345   1.297   5.094
21561SOL     OW76741   7.861   1.248   4.397
21561SOL    HW176742   7.809   1.197   4.465
21561SOL    HW276743   7.957   1.220   4.400
21562SOL     OW76744   8.066   0.649   4.257
21562SOL    HW176745   8.097   0.727   4.203
21562SOL    HW276746   8.041   0.574   4.196
21563SOL     OW76747   8.723   0.530   5.494
21563SOL    HW176748   8.822   0.520   5.501
21563SOL    HW276749   8.679   0.440   5.505
21564SOL     OW76750   7.815   1.403   3.861
21564SOL    HW176751   7.872   1.417   3.779
21564SOL    HW276752   7.859   1.448   3.939
21565SOL     OW76753   7.935   0.325   4.719
21565SOL    HW176754   7.985   0.410   4.708
21565SOL    HW276755   7.996   0.247   4.702
21566SOL     OW76756   7.708   0.775   4.218
21566SOL    HW176757   7.743   0.802   4.308
21566SOL    HW276758   7.612   0.748   4.227
21567SOL     OW76759   8.172   1.722   4.301
21567SOL    HW176760   8.235   1.655   4.261
21567SOL    HW276761   8.156   1.796   4.236
21568SOL     OW76762   9.197   1.595   4.105
21568SOL    HW176763   9.192   1.496   4.090
21568SOL    HW276764   9.159   1.642   4.026
21569SOL     OW76765   9.052   0.345   4.835
21569SOL    HW176766   9.080   0.441   4.830
21569SOL    HW276767   8.954   0.338   4.813
21570SOL     OW76768   8.449   0.354   4.109
21570SOL    HW176769   8.519   0.394   4.167
21570SOL    HW276770   8.401   0.282   4.158
21571SOL     OW76771   7.577   1.094   5.260
21571SOL    HW176772   7.662   1.116   5.308
21571SOL    HW276773   7.524   1.029   5.314
21572SOL     OW76774   8.033   1.634   4.510
21572SOL    HW176775   8.090   1.672   4.437
21572SOL    HW276776   7.955   1.586   4.469
21573SOL     OW76777   8.371   0.666   5.212
21573SOL    HW176778   8.402   0.625   5.298
21573SOL    HW276779   8.450   0.698   5.160
21574SOL     OW76780   8.973   1.444   4.503
21574SOL    HW176781   9.006   1.458   4.596
21574SOL    HW276782   9.014   1.513   4.443
21575SOL     OW76783   7.691   1.273   4.179
21575SOL    HW176784   7.748   1.267   4.260
21575SOL    HW276785   7.737   1.229   4.102
21576SOL     OW76786   8.561   0.414   3.858
21576SOL    HW176787   8.658   0.389   3.854
21576SOL    HW276788   8.524   0.393   3.948
21577SOL     OW76789   7.742   0.551   4.947
21577SOL    HW176790   7.734   0.452   4.936
21577SOL    HW276791   7.663   0.595   4.903
21578SOL     OW76792   8.854   0.865   5.033
21578SOL    HW176793   8.900   0.942   4.989
21578SOL    HW276794   8.920   0.792   5.048
21579SOL     OW76795   7.749   0.267   4.159
21579SOL    HW176796   7.707   0.284   4.248
21579SOL    HW276797   7.704   0.324   4.090
21580SOL     OW76798   8.901   1.759   5.018
21580SOL    HW176799   8.827   1.774   4.953
21580SOL    HW276800   8.986   1.744   4.968
21581SOL     OW76801   9.122   0.610   4.848
21581SOL    HW176802   9.217   0.640   4.841
21581SOL    HW276803   9.089   0.625   4.942
21582SOL     OW76804   9.135   1.748   4.868
21582SOL    HW176805   9.192   1.769   4.948
21582SOL    HW276806   9.154   1.814   4.796
21583SOL     OW76807   8.251   0.482   4.382
21583SOL    HW176808   8.327   0.523   4.432
21583SOL    HW276809   8.196   0.554   4.340
21584SOL     OW76810   8.647   0.948   3.810
21584SOL    HW176811   8.685   0.926   3.901
21584SOL    HW276812   8.592   0.871   3.778
21585SOL     OW76813   8.485   0.332   5.493
21585SOL    HW176814   8.454   0.427   5.483
21585SOL    HW276815   8.431   0.287   5.564
21586SOL     OW76816   8.391   1.796   3.842
21586SOL    HW176817   8.429   1.746   3.765
21586SOL    HW276818   8.408   1.746   3.927
21587SOL     OW76819   8.170   0.127   5.432
21587SOL    HW176820   8.207   0.060   5.367
21587SOL    HW276821   8.225   0.125   5.515
21588SOL     OW76822   8.877   0.701   4.746
21588SOL    HW176823   8.881   0.800   4.729
21588SOL    HW276824   8.968   0.668   4.772
21589SOL     OW76825   8.449   1.320   5.421
21589SOL    HW176826   8.493   1.230   5.416
21589SOL    HW276827   8.399   1.338   5.336
21590SOL     OW76828   8.154   1.178   5.394
21590SOL    HW176829   8.092   1.255   5.410
21590SOL    HW276830   8.166   1.126   5.479
21591SOL     OW76831   8.773   0.015   4.608
21591SOL    HW176832   8.709   0.091   4.607
21591SOL    HW276833   8.856   0.040   4.559
21592SOL     OW76834   9.133   0.248   5.523
21592SOL    HW176835   9.162   0.192   5.601
21592SOL    HW276836   9.091   0.191   5.453
21593SOL     OW76837   7.449   0.716   4.284
21593SOL    HW176838   7.454   0.648   4.357
21593SOL    HW276839   7.421   0.804   4.321
21594SOL     OW76840   7.735   0.199   4.548
21594SOL    HW176841   7.804   0.247   4.603
21594SOL    HW276842   7.754   0.101   4.549
21595SOL     OW76843   7.733   0.275   4.911
21595SOL    HW176844   7.744   0.186   4.955
21595SOL    HW276845   7.805   0.287   4.842
21596SOL     OW76846   8.453   0.841   4.639
21596SOL    HW176847   8.524   0.896   4.597
21596SOL    HW276848   8.445   0.754   4.590
21597SOL     OW76849   7.587   1.529   4.098
21597SOL    HW176850   7.620   1.436   4.116
21597SOL    HW276851   7.638   1.569   4.022
21598SOL     OW76852   8.807   1.394   4.932
21598SOL    HW176853   8.761   1.430   4.851
21598SOL    HW276854   8.744   1.396   5.010
21599SOL     OW76855   7.578   1.628   4.360
21599SOL    HW176856   7.482   1.642   4.385
21599SOL    HW276857   7.583   1.606   4.262
21600SOL     OW76858   9.076   1.367   4.988
21600SOL    HW176859   9.113   1.426   5.060
21600SOL    HW276860   8.980   1.389   4.973
21601SOL     OW76861   8.335   1.155   4.982
21601SOL    HW176862   8.386   1.074   4.953
21601SOL    HW276863   8.276   1.185   4.907
21602SOL     OW76864   7.490   0.802   3.890
21602SOL    HW176865   7.577   0.757   3.913
21602SOL    HW276866   7.417   0.763   3.946
21603SOL     OW76867   8.280   1.812   4.715
21603SOL    HW176868   8.298   1.731   4.660
21603SOL    HW276869   8.196   1.801   4.767
21604SOL     OW76870   8.740   0.418   4.163
21604SOL    HW176871   8.708   0.506   4.126
21604SOL    HW276872   8.833   0.400   4.131
21605SOL     OW76873   7.701   0.696   5.173
21605SOL    HW176874   7.720   0.637   5.094
21605SOL    HW276875   7.665   0.641   5.248
21606SOL     OW76876   7.524   0.246   5.129
21606SOL    HW176877   7.585   0.278   5.057
21606SOL    HW276878   7.429   0.255   5.100
21607SOL     OW76879   8.403   0.894   4.903
21607SOL    HW176880   8.422   0.877   4.806
21607SOL    HW276881   8.318   0.848   4.928
21608SOL     OW76882   8.992   0.335   4.077
21608SOL    HW176883   9.082   0.379   4.086
21608SOL    HW276884   8.996   0.243   4.117
21609SOL     OW76885   8.297   1.577   4.597
21609SOL    HW176886   8.361   1.532   4.534
21609SOL    HW276887   8.204   1.568   4.562
21610SOL     OW76888   8.216   0.431   3.984
21610SOL    HW176889   8.138   0.417   4.045
21610SOL    HW276890   8.300   0.412   4.034
21611SOL     OW76891   8.341   1.281   3.810
21611SOL    HW176892   8.389   1.268   3.897
21611SOL    HW276893   8.407   1.301   3.738
21612SOL     OW76894   9.079   1.633   4.351
21612SOL    HW176895   9.062   1.728   4.377
21612SOL    HW276896   9.124   1.631   4.261
21613SOL     OW76897   8.599   0.959   4.267
21613SOL    HW176898   8.626   0.971   4.363
21613SOL    HW276899   8.505   0.988   4.255
21614SOL     OW76900   8.227   1.671   5.331
21614SOL    HW176901   8.181   1.618   5.260
21614SOL    HW276902   8.223   1.620   5.418
21615SOL     OW76903   8.656   0.996   4.537
21615SOL    HW176904   8.742   0.967   4.580
21615SOL    HW276905   8.623   1.079   4.581
21616SOL     OW76906   7.710   1.111   4.576
21616SOL    HW176907   7.617   1.150   4.573
21616SOL    HW276908   7.736   1.096   4.672
21617SOL     OW76909   8.329   1.039   4.233
21617SOL    HW176910   8.277   0.969   4.184
21617SOL    HW276911   8.276   1.072   4.310
21618SOL     OW76912   8.624   1.392   5.136
21618SOL    HW176913   8.667   1.475   5.171
21618SOL    HW276914   8.525   1.399   5.146
21619SOL     OW76915   7.426   0.351   4.145
21619SOL    HW176916   7.492   0.380   4.075
21619SOL    HW276917   7.473   0.343   4.233
21620SOL     OW76918   9.089   1.769   3.906
21620SOL    HW176919   9.166   1.832   3.896
21620SOL    HW276920   9.059   1.739   3.815
21621SOL     OW76921   8.185   0.782   5.049
21621SOL    HW176922   8.179   0.868   5.098
21621SOL    HW276923   8.247   0.720   5.097
21622SOL     OW76924   7.471   1.829   5.075
21622SOL    HW176925   7.427   1.919   5.072
21622SOL    HW276926   7.444   1.782   5.159
21623SOL     OW76927   8.165   0.871   4.088
21623SOL    HW176928   8.066   0.879   4.073
21623SOL    HW276929   8.204   0.808   4.021
21624SOL     OW76930   7.708   0.549   4.626
21624SOL    HW176931   7.765   0.524   4.548
21624SOL    HW276932   7.763   0.551   4.709
21625SOL     OW76933   7.695   1.751   3.926
21625SOL    HW176934   7.783   1.786   3.894
21625SOL    HW276935   7.679   1.782   4.020
21626SOL     OW76936   8.702   1.789   4.833
21626SOL    HW176937   8.735   1.796   4.739
21626SOL    HW276938   8.622   1.730   4.836
21627SOL     OW76939   7.446   1.209   4.622
21627SOL    HW176940   7.357   1.206   4.576
21627SOL    HW276941   7.446   1.142   4.697
21628SOL     OW76942   8.193   9.998   4.026
21628SOL    HW176943   8.218   9.931   3.956
21628SOL    HW276944   8.094   9.999   4.037
21629SOL     OW76945   7.430   1.164   4.205
21629SOL    HW176946   7.515   1.215   4.218
21629SOL    HW276947   7.427   1.128   4.112
21630SOL     OW76948   8.874   0.371   5.247
21630SOL    HW176949   8.820   0.452   5.225
21630SOL    HW276950   8.920   0.385   5.335
21631SOL     OW76951   8.621   0.247   4.618
21631SOL    HW176952   8.632   0.310   4.541
21631SOL    HW276953   8.674   0.281   4.696
21632SOL     OW76954   8.796   0.062   3.896
21632SOL    HW176955   8.865   9.992   3.913
21632SOL    HW276956   8.751   0.087   3.982
21633SOL     OW76957   9.037   0.095   5.315
21633SOL    HW176958   9.092   0.012   5.321
21633SOL    HW276959   9.057   0.143   5.229
21634SOL     OW76960   8.099   0.262   4.401
21634SOL    HW176961   8.096   0.208   4.485
21634SOL    HW276962   8.162   0.339   4.413
21635SOL     OW76963   8.652   0.603   4.858
21635SOL    HW176964   8.730   0.642   4.809
21635SOL    HW276965   8.631   0.659   4.938
21636SOL     OW76966   8.966   0.079   4.192
21636SOL    HW176967   8.987   0.013   4.121
21636SOL    HW276968   8.868   0.100   4.190
21637SOL     OW76969   7.970   1.406   5.436
21637SOL    HW176970   7.921   1.473   5.380
21637SOL    HW276971   8.053   1.446   5.472
21638SOL     OW76972   7.825   1.159   5.371
21638SOL    HW176973   7.871   1.135   5.286
21638SOL    HW276974   7.855   1.251   5.400
21639SOL     OW76975   7.521   1.414   4.792
21639SOL    HW176976   7.497   1.352   4.717
21639SOL    HW276977   7.452   1.408   4.863
21640SOL     OW76978   8.457   0.584   4.524
21640SOL    HW176979   8.541   0.537   4.495
21640SOL    HW276980   8.435   0.557   4.617
21641SOL     OW76981   9.158   0.656   5.328
21641SOL    HW176982   9.155   0.750   5.292
21641SOL    HW276983   9.252   0.631   5.348
21642SOL     OW76984   8.770   0.355   4.821
21642SOL    HW176985   8.728   0.445   4.834
21642SOL    HW276986   8.763   0.302   4.906
21643SOL     OW76987   8.995   0.483   5.472
21643SOL    HW176988   9.055   0.549   5.427
21643SOL    HW276989   9.050   0.408   5.510
21644SOL     OW76990   8.760   0.896   4.055
21644SOL    HW176991   8.711   0.928   4.136
21644SOL    HW276992   8.846   0.946   4.045
21645SOL     OW76993   9.150   0.893   5.201
21645SOL    HW176994   9.075   0.956   5.223
21645SOL    HW276995   9.199   0.926   5.121
21646SOL     OW76996   8.937   0.275   3.805
21646SOL    HW176997   8.965   0.316   3.892
21646SOL    HW276998   8.882   0.194   3.822
21647SOL     OW76999   8.114   1.532   5.118
21647SOL    HW177000   8.057   1.611   5.097
21647SOL    HW277001   8.078   1.451   5.070
21648SOL     OW77002   7.535   0.266   5.403
21648SOL    HW177003   7.528   0.250   5.305
21648SOL    HW277004   7.457   0.225   5.450
21649SOL     OW77005   7.406   1.698   5.310
21649SOL    HW177006   7.493   1.712   5.357
21649SOL    HW277007   7.330   1.716   5.373
21650SOL     OW77008   7.555   0.326   4.387
21650SOL    HW177009   7.533   0.414   4.429
21650SOL    HW277010   7.619   0.277   4.445
21651SOL     OW77011   8.769   1.608   5.208
21651SOL    HW177012   8.702   1.670   5.249
21651SOL    HW277013   8.821   1.657   5.138
21652SOL     OW77014   7.723   0.668   3.961
21652SOL    HW177015   7.813   0.671   3.918
21652SOL    HW277016   7.730   0.704   4.055
21653SOL     OW77017   9.078   0.262   5.097
21653SOL    HW177018   9.007   0.310   5.148
21653SOL    HW277019   9.070   0.283   5.000
21654SOL     OW77020   7.777   1.812   4.445
21654SOL    HW177021   7.696   1.767   4.408
21654SOL    HW277022   7.856   1.791   4.388
21655SOL     OW77023   7.744   1.324   4.928
21655SOL    HW177024   7.729   1.351   5.023
21655SOL    HW277025   7.671   1.363   4.870
21656SOL     OW77026   8.527   1.572   5.512
21656SOL    HW177027   8.497   1.483   5.480
21656SOL    HW277028   8.541   1.633   5.434
21657SOL     OW77029   8.139   1.314   4.185
21657SOL    HW177030   8.145   1.250   4.108
21657SOL    HW277031   8.137   1.263   4.270
21658SOL     OW77032   7.772   0.858   4.473
21658SOL    HW177033   7.766   0.953   4.501
21658SOL    HW277034   7.862   0.821   4.498
21659SOL     OW77035   7.626   0.414   3.966
21659SOL    HW177036   7.659   0.369   3.883
21659SOL    HW277037   7.656   0.510   3.965
21660SOL     OW77038   7.462   0.558   4.509
21660SOL    HW177039   7.389   0.608   4.555
21660SOL    HW277040   7.546   0.566   4.561
21661SOL     OW77041   7.868   1.164   3.985
21661SOL    HW177042   7.967   1.157   3.979
21661SOL    HW277043   7.836   1.239   3.927
21662SOL     OW77044   8.515   0.692   3.771
21662SOL    HW177045   8.491   0.669   3.676
21662SOL    HW277046   8.557   0.613   3.815
21663SOL     OW77047   8.280   0.697   3.918
21663SOL    HW177048   8.364   0.702   3.864
21663SOL    HW277049   8.251   0.601   3.926
21664SOL     OW77050   8.706   0.142   4.146
21664SOL    HW177051   8.643   0.102   4.212
21664SOL    HW277052   8.702   0.242   4.152
21665SOL     OW77053   8.751   0.610   5.220
21665SOL    HW177054   8.734   0.612   5.319
21665SOL    HW277055   8.691   0.675   5.174
21666SOL     OW77056   7.280   0.044   3.823
21666SOL    HW177057   7.227   9.966   3.856
21666SOL    HW277058   7.340   0.077   3.896
21667SOL     OW77059   7.779   1.067   4.838
21667SOL    HW177060   7.764   1.004   4.914
21667SOL    HW277061   7.773   1.161   4.872
21668SOL     OW77062   8.992   1.017   3.953
21668SOL    HW177063   9.083   1.058   3.953
21668SOL    HW277064   8.972   0.977   3.864
21669SOL     OW77065   7.978   0.701   4.884
21669SOL    HW177066   8.043   0.733   4.952
21669SOL    HW277067   7.901   0.656   4.929
21670SOL     OW77068   8.216   1.019   5.187
21670SOL    HW177069   8.268   1.070   5.118
21670SOL    HW277070   8.203   1.076   5.268
21671SOL     OW77071   8.550   1.062   5.400
21671SOL    HW177072   8.473   1.000   5.413
21671SOL    HW277073   8.636   1.015   5.421
21672SOL     OW77074   8.531   0.026   4.310
21672SOL    HW177075   8.531   9.961   4.385
21672SOL    HW277076   8.441   0.069   4.302
21673SOL     OW77077   8.570   1.758   5.312
21673SOL    HW177078   8.500   1.794   5.251
21673SOL    HW277079   8.616   1.834   5.359
21674SOL     OW77080   8.108   0.125   4.650
21674SOL    HW177081   8.076   0.043   4.697
21674SOL    HW277082   8.206   0.137   4.665
21675SOL     OW77083   7.712   1.819   4.940
21675SOL    HW177084   7.687   1.769   4.857
21675SOL    HW277085   7.633   1.824   5.001
21676SOL     OW77086   8.355   1.251   4.560
21676SOL    HW177087   8.394   1.325   4.505
21676SOL    HW277088   8.428   1.211   4.616
21677SOL     OW77089   8.023   1.005   4.643
21677SOL    HW177090   8.039   0.913   4.608
21677SOL    HW277091   7.951   1.003   4.712
21678SOL     OW77092   7.471   1.015   4.811
21678SOL    HW177093   7.551   1.013   4.871
21678SOL    HW277094   7.484   0.950   4.736
21679SOL     OW77095   7.651   0.021   4.054
21679SOL    HW177096   7.691   0.104   4.093
21679SOL    HW277097   7.551   0.024   4.066
21680SOL     OW77098   8.110   0.688   5.373
21680SOL    HW177099   8.048   0.743   5.318
21680SOL    HW277100   8.189   0.661   5.318
21681SOL     OW77101   7.465   1.082   3.944
21681SOL    HW177102   7.494   0.989   3.919
21681SOL    HW277103   7.512   1.148   3.886
21682SOL     OW77104   9.271   0.133   4.515
21682SOL    HW177105   9.250   0.144   4.612
21682SOL    HW277106   9.369   0.149   4.501
21683SOL     OW77107   8.169   1.210   4.766
21683SOL    HW177108   8.119   1.133   4.726
21683SOL    HW277109   8.233   1.247   4.699
21684SOL     OW77110   8.638   0.650   4.069
21684SOL    HW177111   8.696   0.731   4.062
21684SOL    HW277112   8.543   0.677   4.078
21685SOL     OW77113   8.947   1.473   5.363
21685SOL    HW177114   8.923   1.377   5.377
21685SOL    HW277115   8.877   1.517   5.307
21686SOL     OW77116   7.631   0.926   5.041
21686SOL    HW177117   7.656   0.844   5.092
21686SOL    HW277118   7.612   1.001   5.105
21687SOL     OW77119   8.211   1.519   3.724
21687SOL    HW177120   8.164   1.572   3.794
21687SOL    HW277121   8.263   1.445   3.766
21688SOL     OW77122   8.030   1.715   4.777
21688SOL    HW177123   8.024   1.673   4.687
21688SOL    HW277124   7.949   1.690   4.831
21689SOL     OW77125   8.137   1.156   4.429
21689SOL    HW177126   8.217   1.197   4.472
21689SOL    HW277127   8.093   1.093   4.492
21690SOL     OW77128   8.331   1.519   4.196
21690SOL    HW177129   8.395   1.526   4.119
21690SOL    HW277130   8.269   1.443   4.180
21691SOL     OW77131   7.525   0.847   4.602
21691SOL    HW177132   7.615   0.832   4.561
21691SOL    HW277133   7.462   0.883   4.534
21692SOL     OW77134   8.351   1.822   5.141
21692SOL    HW177135   8.313   1.758   5.208
21692SOL    HW277136   8.283   1.893   5.120
21693SOL     OW77137   8.580   1.198   4.709
21693SOL    HW177138   8.591   1.297   4.715
21693SOL    HW277139   8.634   1.154   4.782
21694SOL     OW77140   7.880   0.488   5.456
21694SOL    HW177141   7.960   0.457   5.404
21694SOL    HW277142   7.904   0.571   5.506
21695SOL     OW77143   7.899   0.905   4.070
21695SOL    HW177144   7.872   0.996   4.038
21695SOL    HW277145   7.827   0.866   4.126
21696SOL     OW77146   8.880   0.978   4.705
21696SOL    HW177147   8.931   1.041   4.647
21696SOL    HW277148   8.841   1.027   4.782
21697SOL     OW77149   8.747   0.223   5.056
21697SOL    HW177150   8.786   0.270   5.136
21697SOL    HW277151   8.650   0.207   5.071
21698SOL     OW77152   7.380   0.089   4.084
21698SOL    HW177153   7.296   0.057   4.127
21698SOL    HW277154   7.395   0.185   4.107
21699SOL     OW77155   8.560   0.103   5.357
21699SOL    HW177156   8.653   0.078   5.386
21699SOL    HW277157   8.534   0.188   5.400
21700SOL     OW77158   7.837   1.611   5.304
21700SOL    HW177159   7.769   1.668   5.351
21700SOL    HW277160   7.881   1.665   5.232
21701SOL     OW77161   9.163   1.524   5.198
21701SOL    HW177162   9.218   1.598   5.236
21701SOL    HW277163   9.090   1.500   5.263
21702SOL     OW77164   8.391   0.536   4.783
21702SOL    HW177165   8.482   0.569   4.810
21702SOL    HW277166   8.365   0.459   4.842
21703SOL     OW77167   7.832   1.517   4.365
21703SOL    HW177168   7.837   1.419   4.379
21703SOL    HW277169   7.737   1.547   4.372
21704SOL     OW77170   8.464   1.660   4.869
21704SOL    HW177171   8.424   1.640   4.958
21704SOL    HW277172   8.399   1.712   4.814
21705SOL     OW77173   7.649   1.782   5.422
21705SOL    HW177174   7.650   1.879   5.397
21705SOL    HW277175   7.668   1.773   5.519
21706SOL     OW77176   7.486   1.350   5.347
21706SOL    HW177177   7.499   1.256   5.315
21706SOL    HW277178   7.400   1.386   5.313
21707SOL     OW77179   7.613   1.670   4.725
21707SOL    HW177180   7.586   1.576   4.744
21707SOL    HW277181   7.643   1.678   4.630
21708SOL     OW77182   8.375   0.150   4.707
21708SOL    HW177183   8.459   0.183   4.666
21708SOL    HW277184   8.395   0.075   4.770
21709SOL     OW77185   8.449   1.231   4.059
21709SOL    HW177186   8.542   1.254   4.089
21709SOL    HW277187   8.410   1.164   4.123
21710SOL     OW77188   8.144   1.140   3.972
21710SOL    HW177189   8.212   1.179   3.909
21710SOL    HW277190   8.173   1.048   4.000
21711SOL     OW77191   8.191   0.207   3.833
21711SOL    HW177192   8.205   0.133   3.899
21711SOL    HW277193   8.192   0.295   3.880
21712SOL     OW77194   7.881   0.478   4.426
21712SOL    HW177195   7.930   0.392   4.426
21712SOL    HW277196   7.929   0.545   4.369
21713SOL     OW77197   7.957   1.096   5.138
21713SOL    HW177198   8.049   1.063   5.157
21713SOL    HW277199   7.962   1.178   5.081
21714SOL     OW77200   9.089   1.096   4.990
21714SOL    HW177201   9.091   1.195   4.980
21714SOL    HW277202   9.158   1.055   4.931
21715SOL     OW77203   7.583   1.267   3.783
21715SOL    HW177204   7.556   1.285   3.689
21715SOL    HW277205   7.660   1.326   3.807
21716SOL     OW77206   8.053   1.645   3.901
21716SOL    HW177207   7.999   1.727   3.879
21716SOL    HW277208   8.017   1.603   3.984
21717SOL     OW77209   8.684   1.130   5.168
21717SOL    HW177210   8.628   1.093   5.242
21717SOL    HW277211   8.662   1.227   5.154
21718SOL     OW77212   7.941   1.758   5.092
21718SOL    HW177213   7.998   1.839   5.103
21718SOL    HW277214   7.860   1.780   5.038
21719SOL     OW77215   7.619   0.527   5.373
21719SOL    HW177216   7.578   0.436   5.384
21719SOL    HW277217   7.713   0.525   5.409
21720SOL     OW77218   9.076   1.507   4.744
21720SOL    HW177219   9.095   1.595   4.787
21720SOL    HW277220   9.097   1.434   4.809
21721SOL     OW77221   7.374   0.956   4.389
21721SOL    HW177222   7.407   1.031   4.332
21721SOL    HW277223   7.274   0.957   4.390
21722SOL     OW77224   7.927   0.835   5.238
21722SOL    HW177225   7.842   0.786   5.219
21722SOL    HW277226   7.923   0.926   5.198
21723SOL     OW77227   8.986   1.165   4.528
21723SOL    HW177228   8.974   1.264   4.534
21723SOL    HW277229   8.976   1.136   4.433
21724SOL     OW77230   8.108   0.555   4.700
21724SOL    HW177231   8.206   0.548   4.720
21724SOL    HW277232   8.064   0.611   4.770
21725SOL     OW77233   8.015   1.317   4.972
21725SOL    HW177234   7.920   1.330   4.943
21725SOL    HW277235   8.070   1.287   4.894
21726SOL     OW77236   7.541   0.719   4.857
21726SOL    HW177237   7.562   0.796   4.916
21726SOL    HW277238   7.543   0.749   4.761
21727SOL     OW77239   7.700   1.410   5.180
21727SOL    HW177240   7.754   1.484   5.219
21727SOL    HW277241   7.622   1.391   5.240
21728SOL     OW77242   9.014   1.718   5.475
21728SOL    HW177243   8.989   1.624   5.454
21728SOL    HW277244   8.983   1.778   5.401
21729SOL     OW77245   8.718   1.271   4.125
21729SOL    HW177246   8.803   1.274   4.178
21729SOL    HW277247   8.736   1.229   4.036
21730SOL     OW77248   8.012   0.374   4.161
21730SOL    HW177249   7.920   0.338   4.143
21730SOL    HW277250   8.050   0.330   4.242
21731SOL     OW77251   9.003   0.079   4.471
21731SOL    HW177252   8.982   0.079   4.373
21731SOL    HW277253   9.095   0.114   4.485
21732SOL     OW77254   8.594   0.784   5.067
21732SOL    HW177255   8.684   0.828   5.060
21732SOL    HW277256   8.528   0.834   5.011
21733SOL     OW77257   8.028   0.755   4.518
21733SOL    HW177258   8.055   0.682   4.581
21733SOL    HW277259   8.048   0.728   4.424
21734SOL     OW77260   8.621   1.467   4.737
21734SOL    HW177261   8.552   1.527   4.778
21734SOL    HW277262   8.649   1.504   4.649
21735SOL     OW77263   8.687   0.450   4.437
21735SOL    HW177264   8.708   0.437   4.340
21735SOL    HW277265   8.762   0.500   4.481
21736SOL     OW77266   8.473   1.503   6.294
21736SOL    HW177267   8.560   1.552   6.289
21736SOL    HW277268   8.426   1.510   6.205
21737SOL     OW77269   7.762   0.266   5.560
21737SOL    HW177270   7.680   0.250   5.505
21737SOL    HW277271   7.811   0.346   5.526
21738SOL     OW77272   8.706   1.649   6.269
21738SOL    HW177273   8.717   1.728   6.330
21738SOL    HW277274   8.794   1.625   6.228
21739SOL     OW77275   8.604   9.944   6.914
21739SOL    HW177276   8.508   9.969   6.927
21739SOL    HW277277   8.627   9.951   6.817
21740SOL     OW77278   8.348   0.898   7.241
21740SOL    HW177279   8.325   0.842   7.161
21740SOL    HW277280   8.265   0.916   7.294
21741SOL     OW77281   7.943   1.516   5.934
21741SOL    HW177282   7.883   1.544   6.009
21741SOL    HW277283   8.013   1.454   5.969
21742SOL     OW77284   7.965   0.091   5.622
21742SOL    HW177285   8.032   0.102   5.549
21742SOL    HW277286   7.888   0.153   5.607
21743SOL     OW77287   8.929   1.063   7.092
21743SOL    HW177288   8.865   1.015   7.031
21743SOL    HW277289   8.882   1.139   7.136
21744SOL     OW77290   8.336   1.349   7.033
21744SOL    HW177291   8.257   1.405   7.008
21744SOL    HW277292   8.414   1.375   6.976
21745SOL     OW77293   7.816   1.216   6.233
21745SOL    HW177294   7.764   1.162   6.299
21745SOL    HW277295   7.913   1.195   6.242
21746SOL     OW77296   8.633   0.611   7.219
21746SOL    HW177297   8.727   0.578   7.229
21746SOL    HW277298   8.629   0.679   7.146
21747SOL     OW77299   7.833   1.417   5.684
21747SOL    HW177300   7.890   1.429   5.603
21747SOL    HW277301   7.870   1.470   5.760
21748SOL     OW77302   7.922   0.263   6.600
21748SOL    HW177303   7.996   0.330   6.607
21748SOL    HW277304   7.956   0.181   6.555
21749SOL     OW77305   8.182   1.702   6.181
21749SOL    HW177306   8.243   1.633   6.142
21749SOL    HW277307   8.169   1.776   6.114
21750SOL     OW77308   9.146   1.673   5.948
21750SOL    HW177309   9.228   1.626   5.915
21750SOL    HW277310   9.091   1.703   5.870
21751SOL     OW77311   7.576   1.050   7.146
21751SOL    HW177312   7.667   1.081   7.172
21751SOL    HW277313   7.532   1.006   7.225
21752SOL     OW77314   7.945   0.725   5.588
21752SOL    HW177315   7.914   0.821   5.587
21752SOL    HW277316   8.019   0.714   5.522
21753SOL     OW77317   7.989   1.640   6.364
21753SOL    HW177318   8.064   1.673   6.307
21753SOL    HW277319   7.933   1.575   6.312
21754SOL     OW77320   8.346   0.707   7.033
21754SOL    HW177321   8.346   0.629   7.095
21754SOL    HW277322   8.440   0.733   7.012
21755SOL     OW77323   7.691   1.282   5.991
21755SOL    HW177324   7.727   1.255   6.081
21755SOL    HW277325   7.740   1.231   5.920
21756SOL     OW77326   7.746   0.544   6.833
21756SOL    HW177327   7.735   0.445   6.818
21756SOL    HW277328   7.669   0.592   6.793
21757SOL     OW77329   8.846   0.868   6.890
21757SOL    HW177330   8.825   0.859   6.793
21757SOL    HW277331   8.943   0.852   6.905
21758SOL     OW77332   7.809   0.199   5.997
21758SOL    HW177333   7.863   0.255   6.059
21758SOL    HW277334   7.767   0.256   5.927
21759SOL     OW77335   8.884   1.902   6.890
21759SOL    HW177336   8.835   1.864   6.811
21759SOL    HW277337   8.972   1.939   6.860
21760SOL     OW77338   8.367   0.531   7.250
21760SOL    HW177339   8.466   0.546   7.244
21760SOL    HW277340   8.345   0.493   7.340
21761SOL     OW77341   8.398   1.746   5.693
21761SOL    HW177342   8.433   1.694   5.616
21761SOL    HW277343   8.408   1.693   5.777
21762SOL     OW77344   8.118   9.991   7.266
21762SOL    HW177345   8.181   9.924   7.227
21762SOL    HW277346   8.161   0.033   7.347
21763SOL     OW77347   8.479   1.309   7.278
21763SOL    HW177348   8.529   1.225   7.257
21763SOL    HW277349   8.411   1.325   7.206
21764SOL     OW77350   8.137   1.151   7.262
21764SOL    HW177351   8.080   1.226   7.296
21764SOL    HW277352   8.141   1.079   7.331
21765SOL     OW77353   8.668   0.040   6.413
21765SOL    HW177354   8.624   9.968   6.359
21765SOL    HW277355   8.762   0.051   6.381
21766SOL     OW77356   7.696   0.365   6.488
21766SOL    HW177357   7.782   0.325   6.517
21766SOL    HW277358   7.620   0.305   6.515
21767SOL     OW77359   7.720   0.274   6.785
21767SOL    HW177360   7.709   0.196   6.847
21767SOL    HW277361   7.798   0.260   6.725
21768SOL     OW77362   7.577   1.509   5.890
21768SOL    HW177363   7.622   1.428   5.926
21768SOL    HW277364   7.576   1.505   5.790
21769SOL     OW77365   7.596   1.653   6.134
21769SOL    HW177366   7.524   1.723   6.136
21769SOL    HW277367   7.596   1.607   6.045
21770SOL     OW77368   7.891   0.997   5.586
21770SOL    HW177369   7.861   1.044   5.503
21770SOL    HW277370   7.863   1.050   5.666
21771SOL     OW77371   8.260   1.847   6.585
21771SOL    HW177372   8.299   1.764   6.545
21771SOL    HW277373   8.185   1.823   6.647
21772SOL     OW77374   8.161   0.974   5.591
21772SOL    HW177375   8.185   0.948   5.685
21772SOL    HW277376   8.062   0.978   5.582
21773SOL     OW77377   7.745   0.694   7.062
21773SOL    HW177378   7.750   0.624   6.991
21773SOL    HW277379   7.696   0.657   7.141
21774SOL     OW77380   7.464   0.283   6.997
21774SOL    HW177381   7.469   0.372   6.951
21774SOL    HW277382   7.375   0.242   6.980
21775SOL     OW77383   9.002   0.267   6.046
21775SOL    HW177384   9.095   0.273   6.011
21775SOL    HW277385   8.984   0.343   6.108
21776SOL     OW77386   8.327   1.592   6.509
21776SOL    HW177387   8.385   1.567   6.432
21776SOL    HW277388   8.235   1.556   6.494
21777SOL     OW77389   8.307   1.292   5.662
21777SOL    HW177390   8.366   1.270   5.740
21777SOL    HW277391   8.361   1.293   5.578
21778SOL     OW77392   8.969   1.636   6.170
21778SOL    HW177393   8.983   1.723   6.217
21778SOL    HW277394   9.030   1.630   6.091
21779SOL     OW77395   8.206   1.617   7.218
21779SOL    HW177396   8.177   1.554   7.146
21779SOL    HW277397   8.202   1.571   7.306
21780SOL     OW77398   7.677   1.076   6.432
21780SOL    HW177399   7.588   1.120   6.437
21780SOL    HW277400   7.718   1.072   6.523
21781SOL     OW77401   8.292   1.061   6.083
21781SOL    HW177402   8.258   0.988   6.024
21781SOL    HW277403   8.223   1.082   6.153
21782SOL     OW77404   7.430   0.377   5.914
21782SOL    HW177405   7.512   0.357   5.861
21782SOL    HW277406   7.447   0.454   5.975
21783SOL     OW77407   8.997   1.803   5.740
21783SOL    HW177408   9.080   1.859   5.739
21783SOL    HW277409   8.988   1.756   5.653
21784SOL     OW77410   8.142   0.832   6.898
21784SOL    HW177411   8.163   0.927   6.919
21784SOL    HW277412   8.216   0.773   6.933
21785SOL     OW77413   8.228   0.893   5.856
21785SOL    HW177414   8.174   0.809   5.864
21785SOL    HW277415   8.325   0.869   5.843
21786SOL     OW77416   7.784   0.624   6.519
21786SOL    HW177417   7.755   0.530   6.502
21786SOL    HW277418   7.864   0.624   6.579
21787SOL     OW77419   7.717   1.810   5.685
21787SOL    HW177420   7.810   1.839   5.665
21787SOL    HW277421   7.699   1.821   5.783
21788SOL     OW77422   8.714   1.806   6.691
21788SOL    HW177423   8.740   1.818   6.596
21788SOL    HW277424   8.647   1.733   6.698
21789SOL     OW77425   7.430   1.179   6.496
21789SOL    HW177426   7.346   1.168   6.443
21789SOL    HW277427   7.428   1.116   6.575
21790SOL     OW77428   8.123   0.045   5.850
21790SOL    HW177429   8.107   9.951   5.878
21790SOL    HW277430   8.055   0.072   5.781
21791SOL     OW77431   7.316   1.329   5.994
21791SOL    HW177432   7.308   1.423   5.961
21791SOL    HW277433   7.412   1.300   5.991
21792SOL     OW77434   8.212   0.096   6.303
21792SOL    HW177435   8.138   0.071   6.365
21792SOL    HW277436   8.289   0.133   6.355
21793SOL     OW77437   8.923   0.006   6.051
21793SOL    HW177438   8.988   9.963   5.988
21793SOL    HW277439   8.933   0.105   6.046
21794SOL     OW77440   7.965   1.374   7.331
21794SOL    HW177441   7.928   1.440   7.266
21794SOL    HW277442   8.045   1.413   7.377
21795SOL     OW77443   7.822   1.151   7.211
21795SOL    HW177444   7.865   1.142   7.121
21795SOL    HW277445   7.862   1.230   7.258
21796SOL     OW77446   7.487   1.420   6.621
21796SOL    HW177447   7.469   1.344   6.559
21796SOL    HW277448   7.406   1.436   6.679
21797SOL     OW77449   9.120   0.692   7.147
21797SOL    HW177450   9.120   0.753   7.067
21797SOL    HW277451   9.181   0.728   7.217
21798SOL     OW77452   8.901   0.544   7.227
21798SOL    HW177453   8.978   0.598   7.192
21798SOL    HW277454   8.935   0.456   7.260
21799SOL     OW77455   9.128   0.920   6.967
21799SOL    HW177456   9.065   0.986   7.007
21799SOL    HW277457   9.220   0.934   7.005
21800SOL     OW77458   8.133   1.521   6.958
21800SOL    HW177459   8.075   1.602   6.969
21800SOL    HW277460   8.088   1.455   6.898
21801SOL     OW77461   7.537   0.322   7.264
21801SOL    HW177462   7.523   0.307   7.166
21801SOL    HW277463   7.459   0.285   7.314
21802SOL     OW77464   8.837   1.759   7.119
21802SOL    HW177465   8.740   1.739   7.128
21802SOL    HW277466   8.855   1.796   7.028
21803SOL     OW77467   7.746   0.626   5.761
21803SOL    HW177468   7.824   0.653   5.704
21803SOL    HW277469   7.685   0.704   5.773
21804SOL     OW77470   7.731   1.761   6.365
21804SOL    HW177471   7.685   1.730   6.282
21804SOL    HW277472   7.825   1.729   6.365
21805SOL     OW77473   7.713   1.332   6.753
21805SOL    HW177474   7.703   1.369   6.845
21805SOL    HW277475   7.639   1.366   6.695
21806SOL     OW77476   8.552   1.575   7.363
21806SOL    HW177477   8.526   1.480   7.341
21806SOL    HW277478   8.559   1.628   7.278
21807SOL     OW77479   8.122   1.332   6.039
21807SOL    HW177480   8.126   1.267   5.963
21807SOL    HW277481   8.105   1.283   6.124
21808SOL     OW77482   7.687   0.362   5.806
21808SOL    HW177483   7.710   0.315   5.721
21808SOL    HW277484   7.709   0.459   5.798
21809SOL     OW77485   7.382   0.635   6.463
21809SOL    HW177486   7.452   0.706   6.470
21809SOL    HW277487   7.426   0.546   6.451
21810SOL     OW77488   7.855   1.171   5.795
21810SOL    HW177489   7.952   1.165   5.817
21810SOL    HW277490   7.836   1.258   5.751
21811SOL     OW77491   8.461   0.614   5.469
21811SOL    HW177492   8.432   0.709   5.477
21811SOL    HW277493   8.559   0.607   5.489
21812SOL     OW77494   7.409   9.911   5.659
21812SOL    HW177495   7.489   9.883   5.712
21812SOL    HW277496   7.414   0.009   5.639
21813SOL     OW77497   7.773   1.072   6.692
21813SOL    HW177498   7.777   1.015   6.774
21813SOL    HW277499   7.758   1.167   6.718
21814SOL     OW77500   7.983   0.662   6.731
21814SOL    HW177501   8.035   0.725   6.789
21814SOL    HW277502   7.905   0.626   6.784
21815SOL     OW77503   8.207   1.084   7.009
21815SOL    HW177504   8.272   1.155   6.983
21815SOL    HW277505   8.184   1.093   7.106
21816SOL     OW77506   8.572   1.051   7.196
21816SOL    HW177507   8.484   1.007   7.217
21816SOL    HW277508   8.644   1.005   7.247
21817SOL     OW77509   8.562   1.735   7.142
21817SOL    HW177510   8.493   1.724   7.070
21817SOL    HW277511   8.560   1.830   7.174
21818SOL     OW77512   8.005   0.030   6.491
21818SOL    HW177513   7.927   9.986   6.447
21818SOL    HW277514   8.019   9.991   6.582
21819SOL     OW77515   7.761   1.662   6.799
21819SOL    HW177516   7.691   1.685   6.732
21819SOL    HW277517   7.725   1.593   6.862
21820SOL     OW77518   8.341   1.275   6.378
21820SOL    HW177519   8.385   1.360   6.348
21820SOL    HW277520   8.410   1.203   6.386
21821SOL     OW77521   8.012   1.048   6.531
21821SOL    HW177522   8.048   0.957   6.549
21821SOL    HW277523   7.927   1.061   6.583
21822SOL     OW77524   7.460   1.019   6.721
21822SOL    HW177525   7.558   1.021   6.738
21822SOL    HW277526   7.427   0.925   6.726
21823SOL     OW77527   7.623   9.996   5.992
21823SOL    HW177528   7.689   0.072   5.994
21823SOL    HW277529   7.533   0.029   6.020
21824SOL     OW77530   8.095   0.623   7.311
21824SOL    HW177531   8.065   0.692   7.245
21824SOL    HW277532   8.189   0.596   7.290
21825SOL     OW77533   9.167   0.181   6.355
21825SOL    HW177534   9.194   0.188   6.451
21825SOL    HW277535   9.237   0.223   6.298
21826SOL     OW77536   8.144   1.287   6.577
21826SOL    HW177537   8.099   1.199   6.563
21826SOL    HW277538   8.223   1.295   6.516
21827SOL     OW77539   7.670   0.913   6.918
21827SOL    HW177540   7.710   0.835   6.967
21827SOL    HW277541   7.636   0.980   6.984
21828SOL     OW77542   8.186   1.517   5.555
21828SOL    HW177543   8.146   1.579   5.624
21828SOL    HW277544   8.235   1.443   5.602
21829SOL     OW77545   7.980   1.729   6.628
21829SOL    HW177546   7.982   1.683   6.540
21829SOL    HW277547   7.905   1.691   6.684
21830SOL     OW77548   8.106   1.161   6.280
21830SOL    HW177549   8.185   1.212   6.311
21830SOL    HW277550   8.065   1.111   6.358
21831SOL     OW77551   8.337   1.504   6.058
21831SOL    HW177552   8.393   1.510   5.975
21831SOL    HW277553   8.260   1.442   6.042
21832SOL     OW77554   7.594   0.810   6.500
21832SOL    HW177555   7.670   0.745   6.496
21832SOL    HW277556   7.621   0.896   6.456
21833SOL     OW77557   7.435   0.937   7.346
21833SOL    HW177558   7.336   0.941   7.337
21833SOL    HW277559   7.460   0.883   7.427
21834SOL     OW77560   8.341   1.744   6.955
21834SOL    HW177561   8.283   1.662   6.954
21834SOL    HW277562   8.303   1.811   7.019
21835SOL     OW77563   7.911   0.431   7.254
21835SOL    HW177564   7.958   0.352   7.217
21835SOL    HW277565   7.978   0.501   7.280
21836SOL     OW77566   7.389   0.129   6.040
21836SOL    HW177567   7.293   0.103   6.048
21836SOL    HW277568   7.397   0.217   5.994
21837SOL     OW77569   8.479   0.193   7.383
21837SOL    HW177570   8.542   0.244   7.442
21837SOL    HW277571   8.463   0.245   7.300
21838SOL     OW77572   7.856   1.566   7.171
21838SOL    HW177573   7.789   1.614   7.227
21838SOL    HW277574   7.904   1.632   7.113
21839SOL     OW77575   9.199   1.359   7.251
21839SOL    HW177576   9.229   1.455   7.257
21839SOL    HW277577   9.099   1.356   7.254
21840SOL     OW77578   8.381   0.434   6.551
21840SOL    HW177579   8.402   0.354   6.495
21840SOL    HW277580   8.400   0.413   6.647
21841SOL     OW77581   7.817   1.496   6.208
21841SOL    HW177582   7.806   1.397   6.217
21841SOL    HW277583   7.729   1.537   6.188
21842SOL     OW77584   8.491   1.647   6.729
21842SOL    HW177585   8.433   1.680   6.803
21842SOL    HW277586   8.434   1.618   6.652
21843SOL     OW77587   7.669   1.693   7.319
21843SOL    HW177588   7.576   1.726   7.303
21843SOL    HW277589   7.700   1.723   7.409
21844SOL     OW77590   7.501   1.315   7.156
21844SOL    HW177591   7.526   1.219   7.144
21844SOL    HW277592   7.402   1.324   7.166
21845SOL     OW77593   7.575   1.689   6.591
21845SOL    HW177594   7.547   1.593   6.582
21845SOL    HW277595   7.625   1.717   6.509
21846SOL     OW77596   8.427   0.172   6.465
21846SOL    HW177597   8.518   0.141   6.438
21846SOL    HW277598   8.397   0.122   6.546
21847SOL     OW77599   8.430   1.218   5.896
21847SOL    HW177600   8.495   1.284   5.934
21847SOL    HW277601   8.388   1.166   5.970
21848SOL     OW77602   8.126   1.160   5.828
21848SOL    HW177603   8.181   1.210   5.762
21848SOL    HW277604   8.167   1.070   5.845
21849SOL     OW77605   8.313   0.089   5.657
21849SOL    HW177606   8.347   9.996   5.650
21849SOL    HW277607   8.254   0.098   5.737
21850SOL     OW77608   7.943   1.150   6.966
21850SOL    HW177609   8.033   1.111   6.982
21850SOL    HW277610   7.951   1.228   6.904
21851SOL     OW77611   7.569   1.467   5.613
21851SOL    HW177612   7.537   1.430   5.526
21851SOL    HW277613   7.666   1.445   5.625
21852SOL     OW77614   8.054   1.670   5.733
21852SOL    HW177615   8.014   1.759   5.715
21852SOL    HW277616   8.014   1.632   5.816
21853SOL     OW77617   7.965   1.733   6.980
21853SOL    HW177618   7.996   1.828   6.989
21853SOL    HW277619   7.895   1.728   6.908
21854SOL     OW77620   7.610   0.588   7.281
21854SOL    HW177621   7.592   0.490   7.280
21854SOL    HW277622   7.682   0.609   7.348
21855SOL     OW77623   7.994   0.789   7.127
21855SOL    HW177624   7.900   0.760   7.110
21855SOL    HW277625   8.039   0.811   7.040
21856SOL     OW77626   8.118   0.445   6.628
21856SOL    HW177627   8.206   0.461   6.583
21856SOL    HW277628   8.081   0.532   6.661
21857SOL     OW77629   7.990   1.359   6.789
21857SOL    HW177630   7.894   1.363   6.759
21857SOL    HW277631   8.049   1.341   6.711
21858SOL     OW77632   7.541   0.724   6.758
21858SOL    HW177633   7.583   0.791   6.819
21858SOL    HW277634   7.559   0.751   6.663
21859SOL     OW77635   7.678   1.458   6.993
21859SOL    HW177636   7.750   1.491   7.054
21859SOL    HW277637   7.608   1.411   7.046
21860SOL     OW77638   9.014   1.742   7.346
21860SOL    HW177639   8.947   1.698   7.287
21860SOL    HW277640   9.029   1.836   7.315
21861SOL     OW77641   8.934   0.041   6.325
21861SOL    HW177642   8.922   0.020   6.228
21861SOL    HW277643   9.011   0.104   6.336
21862SOL     OW77644   8.606   0.814   7.026
21862SOL    HW177645   8.692   0.820   6.975
21862SOL    HW277646   8.588   0.901   7.071
21863SOL     OW77647   8.476   1.485   8.154
21863SOL    HW177648   8.573   1.501   8.167
21863SOL    HW277649   8.452   1.498   8.057
21864SOL     OW77650   8.975   1.273   7.985
21864SOL    HW177651   8.982   1.344   8.054
21864SOL    HW277652   9.062   1.265   7.936
21865SOL     OW77653   9.060   0.611   8.843
21865SOL    HW177654   8.966   0.578   8.850
21865SOL    HW277655   9.108   0.593   8.929
21866SOL     OW77656   7.757   0.306   7.435
21866SOL    HW177657   7.673   0.285   7.386
21866SOL    HW277658   7.817   0.361   7.376
21867SOL     OW77659   8.735   1.555   8.235
21867SOL    HW177660   8.756   1.653   8.239
21867SOL    HW277661   8.819   1.503   8.219
21868SOL     OW77662   8.515   0.126   8.773
21868SOL    HW177663   8.512   0.071   8.857
21868SOL    HW277664   8.550   0.070   8.698
21869SOL     OW77665   8.380   0.818   9.059
21869SOL    HW177666   8.371   0.747   8.989
21869SOL    HW277667   8.293   0.829   9.106
21870SOL     OW77668   7.960   1.491   7.780
21870SOL    HW177669   7.908   1.505   7.864
21870SOL    HW277670   8.042   1.437   7.800
21871SOL     OW77671   8.052   0.297   7.501
21871SOL    HW177672   8.103   0.211   7.499
21871SOL    HW277673   7.954   0.278   7.493
21872SOL     OW77674   8.363   1.389   8.879
21872SOL    HW177675   8.267   1.405   8.854
21872SOL    HW277676   8.422   1.443   8.819
21873SOL     OW77677   7.851   1.237   8.136
21873SOL    HW177678   7.785   1.181   8.186
21873SOL    HW277679   7.936   1.244   8.188
21874SOL     OW77680   8.685   0.501   9.161
21874SOL    HW177681   8.777   0.511   9.197
21874SOL    HW277682   8.655   0.406   9.169
21875SOL     OW77683   7.810   1.409   7.561
21875SOL    HW177684   7.863   1.407   7.477
21875SOL    HW277685   7.865   1.447   7.635
21876SOL     OW77686   7.964   0.284   8.453
21876SOL    HW177687   7.987   0.381   8.463
21876SOL    HW277688   8.047   0.230   8.468
21877SOL     OW77689   7.664   0.837   7.889
21877SOL    HW177690   7.668   0.831   7.989
21877SOL    HW277691   7.572   0.866   7.862
21878SOL     OW77692   8.265   1.749   8.048
21878SOL    HW177693   8.310   1.668   8.012
21878SOL    HW277694   8.240   1.810   7.973
21879SOL     OW77695   9.137   1.616   7.802
21879SOL    HW177696   9.232   1.593   7.781
21879SOL    HW277697   9.101   1.676   7.731
21880SOL     OW77698   9.004   0.371   8.514
21880SOL    HW177699   9.047   0.459   8.531
21880SOL    HW277700   8.906   0.384   8.502
21881SOL     OW77701   7.624   1.021   8.962
21881SOL    HW177702   7.700   1.070   9.004
21881SOL    HW277703   7.559   0.992   9.034
21882SOL     OW77704   7.855   0.699   7.450
21882SOL    HW177705   7.855   0.798   7.436
21882SOL    HW277706   7.940   0.660   7.416
21883SOL     OW77707   8.051   1.627   8.178
21883SOL    HW177708   8.117   1.683   8.129
21883SOL    HW277709   7.985   1.589   8.113
21884SOL     OW77710   8.387   0.625   8.852
21884SOL    HW177711   8.381   0.531   8.819
21884SOL    HW277712   8.478   0.662   8.833
21885SOL     OW77713   8.998   1.450   8.201
21885SOL    HW177714   9.034   1.435   8.293
21885SOL    HW277715   9.054   1.518   8.154
21886SOL     OW77716   7.713   1.248   7.881
21886SOL    HW177717   7.761   1.242   7.968
21886SOL    HW277718   7.766   1.201   7.810
21887SOL     OW77719   8.644   0.338   7.541
21887SOL    HW177720   8.703   0.296   7.611
21887SOL    HW277721   8.641   0.437   7.555
21888SOL     OW77722   7.767   0.536   8.514
21888SOL    HW177723   7.738   0.444   8.540
21888SOL    HW277724   7.696   0.602   8.541
21889SOL     OW77725   7.752   0.217   7.859
21889SOL    HW177726   7.724   0.247   7.950
21889SOL    HW277727   7.724   0.285   7.791
21890SOL     OW77728   8.923   1.714   8.689
21890SOL    HW177729   8.845   1.739   8.631
21890SOL    HW277730   9.006   1.710   8.634
21891SOL     OW77731   9.130   0.603   8.578
21891SOL    HW177732   9.225   0.635   8.572
21891SOL    HW277733   9.099   0.609   8.673
21892SOL     OW77734   9.176   1.694   8.558
21892SOL    HW177735   9.202   1.740   8.644
21892SOL    HW277736   9.251   1.701   8.493
21893SOL     OW77737   8.644   0.978   7.554
21893SOL    HW177738   8.664   0.929   7.639
21893SOL    HW277739   8.601   0.915   7.489
21894SOL     OW77740   8.566   0.245   9.194
21894SOL    HW177741   8.549   0.257   9.291
21894SOL    HW277742   8.480   0.255   9.143
21895SOL     OW77743   9.145   0.659   7.710
21895SOL    HW177744   9.082   0.582   7.703
21895SOL    HW277745   9.198   0.651   7.795
21896SOL     OW77746   8.382   1.798   7.488
21896SOL    HW177747   8.417   1.733   7.420
21896SOL    HW277748   8.403   1.765   7.580
21897SOL     OW77749   8.262   0.026   9.096
21897SOL    HW177750   8.263   9.926   9.099
21897SOL    HW277751   8.242   0.062   9.188
21898SOL     OW77752   9.170   0.603   8.302
21898SOL    HW177753   9.221   0.687   8.287
21898SOL    HW277754   9.136   0.601   8.396
21899SOL     OW77755   8.494   1.307   9.105
21899SOL    HW177756   8.527   1.214   9.089
21899SOL    HW277757   8.444   1.339   9.024
21900SOL     OW77758   8.151   1.185   9.137
21900SOL    HW177759   8.080   1.256   9.136
21900SOL    HW277760   8.224   1.212   9.200
21901SOL     OW77761   8.732   9.999   8.317
21901SOL    HW177762   8.698   0.093   8.313
21901SOL    HW277763   8.822   9.994   8.274
21902SOL     OW77764   9.122   0.220   9.185
21902SOL    HW177765   9.083   0.250   9.272
21902SOL    HW277766   9.095   0.125   9.167
21903SOL     OW77767   7.394   0.649   7.954
21903SOL    HW177768   7.430   0.612   8.040
21903SOL    HW277769   7.406   0.748   7.953
21904SOL     OW77770   7.762   0.209   8.263
21904SOL    HW177771   7.839   0.239   8.319
21904SOL    HW277772   7.751   0.110   8.271
21905SOL     OW77773   7.713   0.274   8.567
21905SOL    HW177774   7.700   0.196   8.628
21905SOL    HW277775   7.804   0.269   8.526
21906SOL     OW77776   7.613   1.489   7.762
21906SOL    HW177777   7.635   1.403   7.807
21906SOL    HW277778   7.665   1.495   7.676
21907SOL     OW77779   7.590   1.588   8.019
21907SOL    HW177780   7.494   1.579   8.046
21907SOL    HW277781   7.600   1.566   7.922
21908SOL     OW77782   7.868   0.974   7.425
21908SOL    HW177783   7.847   1.024   7.341
21908SOL    HW277784   7.849   1.031   7.504
21909SOL     OW77785   7.468   0.817   7.589
21909SOL    HW177786   7.548   0.759   7.606
21909SOL    HW277787   7.388   0.775   7.632
21910SOL     OW77788   8.973   0.865   7.792
21910SOL    HW177789   9.035   0.793   7.762
21910SOL    HW277790   8.982   0.945   7.732
21911SOL     OW77791   8.140   0.924   7.418
21911SOL    HW177792   8.174   0.847   7.472
21911SOL    HW277793   8.040   0.927   7.422
21912SOL     OW77794   7.519   0.307   8.805
21912SOL    HW177795   7.563   0.361   8.733
21912SOL    HW277796   7.420   0.306   8.790
21913SOL     OW77797   9.014   0.540   7.970
21913SOL    HW177798   9.100   0.590   7.960
21913SOL    HW277799   9.026   0.466   8.036
21914SOL     OW77800   8.251   1.477   8.302
21914SOL    HW177801   8.333   1.476   8.245
21914SOL    HW277802   8.183   1.538   8.261
21915SOL     OW77803   8.286   0.444   7.495
21915SOL    HW177804   8.195   0.402   7.494
21915SOL    HW277805   8.342   0.399   7.565
21916SOL     OW77806   8.353   1.293   7.536
21916SOL    HW177807   8.408   1.274   7.617
21916SOL    HW277808   8.411   1.289   7.454
21917SOL     OW77809   9.148   1.634   8.072
21917SOL    HW177810   9.113   1.723   8.101
21917SOL    HW277811   9.137   1.625   7.973
21918SOL     OW77812   8.550   0.842   7.983
21918SOL    HW177813   8.536   0.805   8.074
21918SOL    HW277814   8.480   0.910   7.963
21919SOL     OW77815   8.226   1.638   9.009
21919SOL    HW177816   8.186   1.574   8.943
21919SOL    HW277817   8.226   1.596   9.100
21920SOL     OW77818   7.684   1.084   8.296
21920SOL    HW177819   7.595   1.129   8.295
21920SOL    HW277820   7.715   1.072   8.390
21921SOL     OW77821   8.340   1.017   7.932
21921SOL    HW177822   8.286   0.972   7.861
21921SOL    HW277823   8.284   1.027   8.015
21922SOL     OW77824   7.450   0.326   7.857
21922SOL    HW177825   7.506   0.354   7.779
21922SOL    HW277826   7.504   0.332   7.941
21923SOL     OW77827   9.060   1.803   7.613
21923SOL    HW177828   9.148   1.850   7.607
21923SOL    HW277829   9.036   1.767   7.523
21924SOL     OW77830   8.160   0.690   8.699
21924SOL    HW177831   8.087   0.726   8.756
21924SOL    HW277832   8.240   0.671   8.756
21925SOL     OW77833   7.447   1.862   8.771
21925SOL    HW177834   7.371   1.928   8.775
21925SOL    HW277835   7.446   1.805   8.853
21926SOL     OW77836   8.177   0.900   7.748
21926SOL    HW177837   8.079   0.887   7.762
21926SOL    HW277838   8.212   0.827   7.689
21927SOL     OW77839   7.761   0.609   8.254
21927SOL    HW177840   7.838   0.570   8.203
21927SOL    HW277841   7.769   0.585   8.350
21928SOL     OW77842   7.746   1.793   7.561
21928SOL    HW177843   7.835   1.837   7.549
21928SOL    HW277844   7.721   1.794   7.658
21929SOL     OW77845   8.714   1.777   8.520
21929SOL    HW177846   8.756   1.805   8.434
21929SOL    HW277847   8.645   1.707   8.502
21930SOL     OW77848   7.431   1.192   8.335
21930SOL    HW177849   7.355   1.172   8.273
21930SOL    HW277850   7.420   1.138   8.419
21931SOL     OW77851   7.442   1.188   7.866
21931SOL    HW177852   7.536   1.213   7.890
21931SOL    HW277853   7.439   1.162   7.770
21932SOL     OW77854   9.025   0.286   8.936
21932SOL    HW177855   8.958   0.360   8.931
21932SOL    HW277856   9.067   0.286   9.027
21933SOL     OW77857   8.667   0.260   8.315
21933SOL    HW177858   8.703   0.303   8.232
21933SOL    HW277859   8.683   0.320   8.393
21934SOL     OW77860   9.000   0.016   9.015
21934SOL    HW177861   8.947   9.957   8.954
21934SOL    HW277862   9.002   0.109   8.977
21935SOL     OW77863   8.698   0.682   8.604
21935SOL    HW177864   8.721   0.758   8.544
21935SOL    HW277865   8.671   0.717   8.693
21936SOL     OW77866   7.961   1.403   9.152
21936SOL    HW177867   7.910   1.471   9.100
21936SOL    HW277868   8.046   1.444   9.186
21937SOL     OW77869   7.849   1.156   9.047
21937SOL    HW177870   7.870   1.149   8.949
21937SOL    HW277871   7.872   1.248   9.079
21938SOL     OW77872   7.485   1.412   8.495
21938SOL    HW177873   7.470   1.347   8.420
21938SOL    HW277874   7.415   1.399   8.565
21939SOL     OW77875   9.164   0.617   9.108
21939SOL    HW177876   9.160   0.712   9.079
21939SOL    HW277877   9.259   0.589   9.123
21940SOL     OW77878   8.734   0.421   8.531
21940SOL    HW177879   8.715   0.517   8.551
21940SOL    HW277880   8.729   0.368   8.616
21941SOL     OW77881   8.942   0.518   9.249
21941SOL    HW177882   9.023   0.549   9.200
21941SOL    HW277883   8.965   0.439   9.306
21942SOL     OW77884   8.707   0.809   7.765
21942SOL    HW177885   8.651   0.819   7.848
21942SOL    HW277886   8.802   0.828   7.787
21943SOL     OW77887   9.020   0.852   8.063
21943SOL    HW177888   8.986   0.863   7.969
21943SOL    HW277889   8.997   0.760   8.096
21944SOL     OW77890   9.150   0.857   8.962
21944SOL    HW177891   9.130   0.805   8.879
21944SOL    HW277892   9.238   0.903   8.952
21945SOL     OW77893   8.100   1.498   8.810
21945SOL    HW177894   8.046   1.582   8.806
21945SOL    HW277895   8.065   1.432   8.744
21946SOL     OW77896   7.530   0.374   9.069
21946SOL    HW177897   7.539   0.342   8.975
21946SOL    HW277898   7.455   0.326   9.113
21947SOL     OW77899   7.448   1.716   9.008
21947SOL    HW177900   7.533   1.736   9.057
21947SOL    HW277901   7.372   1.717   9.072
21948SOL     OW77902   7.594   0.330   8.089
21948SOL    HW177903   7.567   0.419   8.126
21948SOL    HW277904   7.657   0.285   8.153
21949SOL     OW77905   8.858   1.715   8.956
21949SOL    HW177906   8.761   1.730   8.970
21949SOL    HW277907   8.877   1.703   8.859
21950SOL     OW77908   7.684   0.663   7.661
21950SOL    HW177909   7.758   0.677   7.595
21950SOL    HW277910   7.703   0.715   7.744
21951SOL     OW77911   9.131   0.219   8.693
21951SOL    HW177912   9.090   0.243   8.781
21951SOL    HW277913   9.085   0.271   8.620
21952SOL     OW77914   7.770   1.798   8.064
21952SOL    HW177915   7.699   1.728   8.069
21952SOL    HW277916   7.821   1.800   8.150
21953SOL     OW77917   7.716   1.336   8.620
21953SOL    HW177918   7.713   1.360   8.717
21953SOL    HW277919   7.635   1.372   8.574
21954SOL     OW77920   8.568   1.565   9.215
21954SOL    HW177921   8.545   1.475   9.178
21954SOL    HW277922   8.576   1.630   9.140
21955SOL     OW77923   8.177   1.336   7.848
21955SOL    HW177924   8.164   1.273   7.772
21955SOL    HW277925   8.239   1.295   7.915
21956SOL     OW77926   7.641   0.843   8.166
21956SOL    HW177927   7.669   0.929   8.208
21956SOL    HW277928   7.698   0.769   8.203
21957SOL     OW77929   7.650   0.392   7.674
21957SOL    HW177930   7.688   0.355   7.589
21957SOL    HW277931   7.657   0.492   7.673
21958SOL     OW77932   7.495   0.560   8.202
21958SOL    HW177933   7.434   0.577   8.280
21958SOL    HW277934   7.587   0.590   8.224
21959SOL     OW77935   7.868   1.153   7.650
21959SOL    HW177936   7.968   1.157   7.649
21959SOL    HW277937   7.831   1.239   7.615
21960SOL     OW77938   8.513   0.769   7.410
21960SOL    HW177939   8.448   0.821   7.355
21960SOL    HW277940   8.573   0.716   7.350
21961SOL     OW77941   8.275   0.723   7.558
21961SOL    HW177942   8.367   0.743   7.526
21961SOL    HW277943   8.254   0.627   7.542
21962SOL     OW77944   8.827   0.482   8.913
21962SOL    HW177945   8.766   0.505   8.989
21962SOL    HW277946   8.784   0.415   8.854
21963SOL     OW77947   7.290   0.044   7.584
21963SOL    HW177948   7.242   9.957   7.596
21963SOL    HW277949   7.352   0.058   7.661
21964SOL     OW77950   7.728   1.070   8.572
21964SOL    HW177951   7.788   1.027   8.640
21964SOL    HW277952   7.723   1.168   8.589
21965SOL     OW77953   9.017   1.052   7.597
21965SOL    HW177954   9.114   1.075   7.601
21965SOL    HW277955   8.983   1.068   7.504
21966SOL     OW77956   8.037   0.541   8.507
21966SOL    HW177957   8.092   0.596   8.569
21966SOL    HW277958   7.940   0.561   8.520
21967SOL     OW77959   8.130   1.003   8.936
21967SOL    HW177960   8.222   0.968   8.919
21967SOL    HW277961   8.132   1.066   9.014
21968SOL     OW77962   8.559   1.036   9.054
21968SOL    HW177963   8.489   0.965   9.066
21968SOL    HW277964   8.650   0.994   9.059
21969SOL     OW77965   8.592   1.759   9.023
21969SOL    HW177966   8.527   1.755   8.947
21969SOL    HW277967   8.582   1.847   9.070
21970SOL     OW77968   7.712   1.798   8.695
21970SOL    HW177969   7.698   1.743   8.612
21970SOL    HW277970   7.623   1.825   8.732
21971SOL     OW77971   7.456   1.024   8.555
21971SOL    HW177972   7.553   1.035   8.573
21971SOL    HW277973   7.443   0.953   8.486
21972SOL     OW77974   7.663   9.986   7.754
21972SOL    HW177975   7.702   0.068   7.795
21972SOL    HW277976   7.567   9.977   7.781
21973SOL     OW77977   8.011   0.637   9.072
21973SOL    HW177978   7.984   0.676   8.984
21973SOL    HW277979   8.074   0.699   9.117
21974SOL     OW77980   7.457   1.100   7.610
21974SOL    HW177981   7.479   1.004   7.597
21974SOL    HW277982   7.506   1.155   7.543
21975SOL     OW77983   9.243   0.143   8.211
21975SOL    HW177984   9.270   0.150   8.307
21975SOL    HW277985   9.315   0.179   8.153
21976SOL     OW77986   8.107   1.264   8.385
21976SOL    HW177987   8.170   1.188   8.406
21976SOL    HW277988   8.160   1.344   8.356
21977SOL     OW77989   8.637   0.605   7.594
21977SOL    HW177990   8.668   0.664   7.668
21977SOL    HW277991   8.586   0.659   7.527
21978SOL     OW77992   8.887   1.639   9.219
21978SOL    HW177993   8.806   1.582   9.235
21978SOL    HW277994   8.891   1.665   9.122
21979SOL     OW77995   7.680   0.810   8.803
21979SOL    HW177996   7.637   0.732   8.849
21979SOL    HW277997   7.659   0.894   8.854
21980SOL     OW77998   8.175   1.490   7.460
21980SOL    HW177999   8.165   1.564   7.527
21980SOL    HW278000   8.243   1.424   7.493
21981SOL     OW78001   7.893   1.580   8.400
21981SOL    HW178002   7.951   1.601   8.322
21981SOL    HW278003   7.947   1.538   8.473
21982SOL     OW78004   8.367   1.536   7.906
21982SOL    HW178005   8.424   1.568   7.830
21982SOL    HW278006   8.298   1.473   7.871
21983SOL     OW78007   7.439   0.838   8.360
21983SOL    HW178008   7.489   0.841   8.274
21983SOL    HW278009   7.355   0.787   8.348
21984SOL     OW78010   7.437   0.954   9.141
21984SOL    HW178011   7.346   0.963   9.102
21984SOL    HW278012   7.431   0.914   9.232
21985SOL     OW78013   8.380   1.791   8.839
21985SOL    HW178014   8.332   1.728   8.900
21985SOL    HW278015   8.326   1.874   8.827
21986SOL     OW78016   7.980   0.380   9.149
21986SOL    HW178017   8.048   0.327   9.099
21986SOL    HW278018   7.990   0.477   9.126
21987SOL     OW78019   7.903   0.908   7.774
21987SOL    HW178020   7.883   0.995   7.728
21987SOL    HW278021   7.822   0.877   7.824
21988SOL     OW78022   8.744   0.271   8.762
21988SOL    HW178023   8.811   0.199   8.750
21988SOL    HW278024   8.653   0.231   8.773
21989SOL     OW78025   7.404   0.057   7.832
21989SOL    HW178026   7.314   0.035   7.869
21989SOL    HW278027   7.423   0.155   7.846
21990SOL     OW78028   7.826   1.602   9.026
21990SOL    HW178029   7.768   1.667   9.076
21990SOL    HW278030   7.874   1.650   8.953
21991SOL     OW78031   7.850   1.494   8.035
21991SOL    HW178032   7.852   1.403   8.075
21991SOL    HW278033   7.758   1.531   8.041
21992SOL     OW78034   8.492   1.565   8.714
21992SOL    HW178035   8.452   1.652   8.740
21992SOL    HW278036   8.515   1.565   8.617
21993SOL     OW78037   7.667   1.784   9.165
21993SOL    HW178038   7.696   1.880   9.170
21993SOL    HW278039   7.670   1.744   9.256
21994SOL     OW78040   7.523   1.283   9.044
21994SOL    HW178041   7.516   1.192   9.004
21994SOL    HW278042   7.452   1.342   9.005
21995SOL     OW78043   7.637   1.644   8.470
21995SOL    HW178044   7.583   1.560   8.474
21995SOL    HW278045   7.729   1.623   8.438
21996SOL     OW78046   8.465   1.225   7.782
21996SOL    HW178047   8.556   1.254   7.812
21996SOL    HW278048   8.437   1.146   7.835
21997SOL     OW78049   9.066   0.371   8.181
21997SOL    HW178050   9.098   0.448   8.235
21997SOL    HW278051   9.122   0.290   8.202
21998SOL     OW78052   8.140   1.157   7.644
21998SOL    HW178053   8.215   1.197   7.591
21998SOL    HW278054   8.164   1.063   7.669
21999SOL     OW78055   8.238   0.096   7.486
21999SOL    HW178056   8.255   0.006   7.525
21999SOL    HW278057   8.324   0.138   7.459
22000SOL     OW78058   7.935   1.115   8.784
22000SOL    HW178059   8.016   1.077   8.828
22000SOL    HW278060   7.961   1.195   8.730
22001SOL     OW78061   7.589   1.274   7.438
22001SOL    HW178062   7.574   1.302   7.344
22001SOL    HW278063   7.659   1.332   7.480
22002SOL     OW78064   8.099   1.689   7.644
22002SOL    HW178065   8.044   1.764   7.607
22002SOL    HW278066   8.041   1.628   7.698
22003SOL     OW78067   7.950   1.734   8.822
22003SOL    HW178068   7.995   1.813   8.864
22003SOL    HW278069   7.870   1.765   8.770
22004SOL     OW78070   7.478   0.527   9.297
22004SOL    HW178071   7.508   0.480   9.213
22004SOL    HW278072   7.557   0.566   9.343
22005SOL     OW78073   9.104   1.448   8.465
22005SOL    HW178074   9.121   1.541   8.498
22005SOL    HW278075   9.038   1.402   8.524
22006SOL     OW78076   7.393   0.924   7.937
22006SOL    HW178077   7.410   1.021   7.920
22006SOL    HW278078   7.306   0.914   7.985
22007SOL     OW78079   7.956   0.790   8.853
22007SOL    HW178080   7.860   0.802   8.827
22007SOL    HW278081   7.994   0.878   8.883
22008SOL     OW78082   9.093   1.096   8.175
22008SOL    HW178083   9.041   1.162   8.120
22008SOL    HW278084   9.062   1.003   8.154
22009SOL     OW78085   7.987   1.335   8.619
22009SOL    HW178086   7.888   1.341   8.611
22009SOL    HW278087   8.026   1.308   8.532
22010SOL     OW78088   7.581   0.714   8.563
22010SOL    HW178089   7.613   0.769   8.641
22010SOL    HW278090   7.532   0.773   8.499
22011SOL     OW78091   7.711   1.400   8.881
22011SOL    HW178092   7.753   1.477   8.928
22011SOL    HW278093   7.649   1.353   8.943
22012SOL     OW78094   8.730   1.289   7.841
22012SOL    HW178095   8.812   1.279   7.897
22012SOL    HW278096   8.750   1.258   7.748
22013SOL     OW78097   8.973   0.049   8.182
22013SOL    HW178098   8.935   0.120   8.124
22013SOL    HW278099   9.070   0.067   8.198
22014SOL     OW78100   8.622   0.794   8.843
22014SOL    HW178101   8.699   0.794   8.908
22014SOL    HW278102   8.569   0.878   8.854
22015SOL     OW78103   8.540   1.582   8.439
22015SOL    HW178104   8.449   1.558   8.404
22015SOL    HW278105   8.609   1.557   8.371
22016SOL     OW78106   8.803   0.375   8.107
22016SOL    HW178107   8.804   0.443   8.034
22016SOL    HW278108   8.894   0.369   8.148
22017SOL     OW78109   8.511   1.483   0.023
22017SOL    HW178110   8.594   1.428   0.015
22017SOL    HW278111   8.460   1.479   9.937
22018SOL     OW78112   8.901   1.178   9.784
22018SOL    HW178113   8.967   1.244   9.820
22018SOL    HW278114   8.950   1.100   9.744
22019SOL     OW78115   7.749   0.280   9.239
22019SOL    HW178116   7.674   0.302   9.177
22019SOL    HW278117   7.832   0.325   9.208
22020SOL     OW78118   7.948   1.496   9.618
22020SOL    HW178119   7.896   1.529   9.696
22020SOL    HW278120   8.021   1.435   9.649
22021SOL     OW78121   7.938   0.071   9.290
22021SOL    HW178122   8.028   0.114   9.286
22021SOL    HW278123   7.869   0.135   9.258
22022SOL     OW78124   7.816   1.279   9.942
22022SOL    HW178125   7.738   1.276   0.004
22022SOL    HW278126   7.899   1.301   9.995
22023SOL     OW78127   8.127   0.648   9.733
22023SOL    HW178128   8.149   0.731   9.681
22023SOL    HW278129   8.111   0.573   9.669
22024SOL     OW78130   7.815   1.386   9.391
22024SOL    HW178131   7.865   1.403   9.305
22024SOL    HW278132   7.855   1.441   9.464
22025SOL     OW78133   7.705   0.761   9.709
22025SOL    HW178134   7.732   0.696   9.779
22025SOL    HW278135   7.619   0.805   9.737
22026SOL     OW78136   8.364   1.749   9.820
22026SOL    HW178137   8.367   1.650   9.813
22026SOL    HW278138   8.315   1.787   9.742
22027SOL     OW78139   9.119   1.576   9.638
22027SOL    HW178140   9.208   1.537   9.617
22027SOL    HW278141   9.086   1.629   9.559
22028SOL     OW78142   8.408   0.366   9.672
22028SOL    HW178143   8.431   0.452   9.718
22028SOL    HW278144   8.370   0.302   9.738
22029SOL     OW78145   7.846   0.725   9.277
22029SOL    HW178146   7.867   0.822   9.272
22029SOL    HW278147   7.892   0.677   9.202
22030SOL     OW78148   9.120   1.310   9.884
22030SOL    HW178149   9.111   1.259   9.969
22030SOL    HW278150   9.122   1.408   9.904
22031SOL     OW78151   7.707   1.257   9.689
22031SOL    HW178152   7.755   1.262   9.777
22031SOL    HW278153   7.765   1.211   9.622
22032SOL     OW78154   8.552   0.266   9.460
22032SOL    HW178155   8.647   0.272   9.491
22032SOL    HW278156   8.491   0.298   9.533
22033SOL     OW78157   7.746   0.338   9.765
22033SOL    HW178158   7.785   0.424   9.798
22033SOL    HW278159   7.722   0.347   9.669
22034SOL     OW78160   9.301   1.813   0.238
22034SOL    HW178161   9.288   1.852   0.330
22034SOL    HW278162   9.379   1.751   0.239
22035SOL     OW78163   8.313   0.543   9.907
22035SOL    HW178164   8.393   0.592   9.941
22035SOL    HW278165   8.259   0.603   9.848
22036SOL     OW78166   8.514   0.895   9.448
22036SOL    HW178167   8.594   0.883   9.506
22036SOL    HW278168   8.510   0.820   9.381
22037SOL     OW78169   9.109   0.673   9.571
22037SOL    HW178170   9.050   0.602   9.533
22037SOL    HW278171   9.156   0.636   9.652
22038SOL     OW78172   8.370   1.751   9.335
22038SOL    HW178173   8.424   1.677   9.294
22038SOL    HW278174   8.373   1.743   9.435
22039SOL     OW78175   7.450   0.583   9.738
22039SOL    HW178176   7.453   0.562   9.836
22039SOL    HW278177   7.452   0.683   9.726
22040SOL     OW78178   7.615   1.529   9.621
22040SOL    HW178179   7.637   1.431   9.624
22040SOL    HW278180   7.651   1.569   9.537
22041SOL     OW78181   7.579   1.698   9.831
22041SOL    HW178182   7.505   1.764   9.825
22041SOL    HW278183   7.577   1.637   9.752
22042SOL     OW78184   7.923   0.985   9.254
22042SOL    HW178185   7.901   1.040   9.173
22042SOL    HW278186   7.901   1.038   9.337
22043SOL     OW78187   7.457   0.841   9.393
22043SOL    HW178188   7.549   0.801   9.394
22043SOL    HW278189   7.392   0.774   9.428
22044SOL     OW78190   9.006   0.915   9.652
22044SOL    HW178191   9.040   0.830   9.614
22044SOL    HW278192   9.080   0.983   9.654
22045SOL     OW78193   8.153   0.825   9.209
22045SOL    HW178194   8.173   0.775   9.293
22045SOL    HW278195   8.083   0.895   9.227
22046SOL     OW78196   8.738   0.376   9.662
22046SOL    HW178197   8.697   0.451   9.610
22046SOL    HW278198   8.838   0.384   9.660
22047SOL     OW78199   9.010   0.395   9.678
22047SOL    HW178200   9.107   0.376   9.661
22047SOL    HW278201   8.998   0.418   9.775
22048SOL     OW78202   8.216   0.382   9.480
22048SOL    HW178203   8.134   0.370   9.537
22048SOL    HW278204   8.297   0.378   9.537
22049SOL     OW78205   8.338   1.283   9.330
22049SOL    HW178206   8.385   1.271   9.417
22049SOL    HW278207   8.405   1.289   9.256
22050SOL     OW78208   9.128   1.592   9.908
22050SOL    HW178209   9.095   1.680   9.943
22050SOL    HW278210   9.116   1.589   9.809
22051SOL     OW78211   8.572   0.875   9.823
22051SOL    HW178212   8.633   0.934   9.876
22051SOL    HW278213   8.491   0.928   9.795
22052SOL     OW78214   8.750   1.023   9.961
22052SOL    HW178215   8.690   1.056   0.034
22052SOL    HW278216   8.791   1.101   9.914
22053SOL     OW78217   8.347   1.019   9.748
22053SOL    HW178218   8.294   0.962   9.686
22053SOL    HW278219   8.285   1.068   9.810
22054SOL     OW78220   7.448   0.331   9.629
22054SOL    HW178221   7.526   0.327   9.566
22054SOL    HW278222   7.452   0.415   9.683
22055SOL     OW78223   9.018   1.744   9.437
22055SOL    HW178224   9.059   1.827   9.401
22055SOL    HW278225   8.969   1.696   9.364
22056SOL     OW78226   8.185   0.872   9.574
22056SOL    HW178227   8.086   0.876   9.572
22056SOL    HW278228   8.217   0.804   9.508
22057SOL     OW78229   7.722   1.723   9.429
22057SOL    HW178230   7.808   1.765   9.400
22057SOL    HW278231   7.679   1.780   9.499
22058SOL     OW78232   8.167   0.057   9.653
22058SOL    HW178233   8.220   0.008   9.584
22058SOL    HW278234   8.073   0.069   9.620
22059SOL     OW78235   7.456   1.145   9.724
22059SOL    HW178236   7.545   1.192   9.724
22059SOL    HW278237   7.425   1.134   9.630
22060SOL     OW78238   8.897   0.039   9.385
22060SOL    HW178239   8.953   9.959   9.366
22060SOL    HW278240   8.810   0.031   9.336
22061SOL     OW78241   8.087   0.402   9.960
22061SOL    HW178242   8.095   0.364   0.053
22061SOL    HW278243   8.174   0.443   9.933
22062SOL     OW78244   8.947   0.041   9.658
22062SOL    HW178245   8.947   0.028   9.559
22062SOL    HW278246   8.854   0.063   9.689
22063SOL     OW78247   8.735   0.830   9.610
22063SOL    HW178248   8.679   0.844   9.691
22063SOL    HW278249   8.827   0.867   9.626
22064SOL     OW78250   8.999   0.901   9.931
22064SOL    HW178251   9.003   0.890   9.832
22064SOL    HW278252   8.906   0.924   9.958
22065SOL     OW78253   8.986   0.297   9.413
22065SOL    HW178254   8.990   0.325   9.509
22065SOL    HW278255   8.947   0.204   9.407
22066SOL     OW78256   7.674   0.639   9.460
22066SOL    HW178257   7.744   0.671   9.396
22066SOL    HW278258   7.686   0.683   9.549
22067SOL     OW78259   7.784   1.834   9.957
22067SOL    HW178260   7.705   1.797   9.908
22067SOL    HW278261   7.864   1.777   9.938
22068SOL     OW78262   8.142   1.319   9.704
22068SOL    HW178263   8.158   1.265   9.621
22068SOL    HW278264   8.145   1.258   9.783
22069SOL     OW78265   7.689   0.366   9.497
22069SOL    HW178266   7.712   0.322   9.411
22069SOL    HW278267   7.686   0.465   9.485
22070SOL     OW78268   7.461   0.563   0.007
22070SOL    HW178269   7.450   0.645   0.064
22070SOL    HW278270   7.416   0.486   0.052
22071SOL     OW78271   7.883   1.143   9.489
22071SOL    HW178272   7.982   1.149   9.493
22071SOL    HW278273   7.846   1.226   9.446
22072SOL     OW78274   8.503   0.679   9.268
22072SOL    HW178275   8.462   0.733   9.195
22072SOL    HW278276   8.568   0.614   9.228
22073SOL     OW78277   8.254   0.656   9.408
22073SOL    HW178278   8.344   0.660   9.366
22073SOL    HW278279   8.227   0.560   9.420
22074SOL     OW78280   8.685   0.109   9.708
22074SOL    HW178281   8.640   0.091   9.795
22074SOL    HW278282   8.696   0.207   9.694
22075SOL     OW78283   7.422   0.030   9.347
22075SOL    HW178284   7.507   9.978   9.341
22075SOL    HW278285   7.394   0.037   9.443
22076SOL     OW78286   8.540   0.101   9.942
22076SOL    HW178287   8.573   0.165   0.011
22076SOL    HW278288   8.453   0.135   9.904
22077SOL     OW78289   7.646   0.047   9.625
22077SOL    HW178290   7.670   0.125   9.684
22077SOL    HW278291   7.547   0.035   9.626
22078SOL     OW78292   7.404   1.101   9.460
22078SOL    HW178293   7.431   1.008   9.433
22078SOL    HW278294   7.458   1.167   9.409
22079SOL     OW78295   9.075   0.227   0.091
22079SOL    HW178296   9.008   0.196   0.159
22079SOL    HW278297   9.166   0.195   0.118
22080SOL     OW78298   8.643   0.587   9.522
22080SOL    HW178299   8.679   0.674   9.554
22080SOL    HW278300   8.588   0.602   9.439
22081SOL     OW78301   8.190   1.507   9.255
22081SOL    HW178302   8.167   1.573   9.327
22081SOL    HW278303   8.249   1.436   9.292
22082SOL     OW78304   8.168   1.152   9.922
22082SOL    HW178305   8.143   1.233   9.976
22082SOL    HW278306   8.160   1.070   9.979
22083SOL     OW78307   8.368   1.474   9.785
22083SOL    HW178308   8.421   1.484   9.701
22083SOL    HW278309   8.284   1.422   9.765
22084SOL     OW78310   7.917   0.889   9.590
22084SOL    HW178311   7.889   0.979   9.557
22084SOL    HW278312   7.840   0.843   9.635
22085SOL     OW78313   7.367   0.065   9.619
22085SOL    HW178314   7.281   0.042   9.664
22085SOL    HW278315   7.385   0.163   9.630
22086SOL     OW78316   7.819   1.550   9.861
22086SOL    HW178317   7.808   1.453   9.882
22086SOL    HW278318   7.729   1.592   9.852
22087SOL     OW78319   8.439   1.224   9.576
22087SOL    HW178320   8.537   1.243   9.590
22087SOL    HW278321   8.412   1.148   9.635
22088SOL     OW78322   9.001   0.448   9.951
22088SOL    HW178323   9.063   0.519   9.984
22088SOL    HW278324   9.021   0.362   9.998
22089SOL     OW78325   8.153   1.143   9.489
22089SOL    HW178326   8.218   1.187   9.427
22089SOL    HW278327   8.186   1.051   9.509
22090SOL     OW78328   8.211   0.136   9.337
22090SOL    HW178329   8.256   0.069   9.395
22090SOL    HW278330   8.216   0.226   9.380
22091SOL     OW78331   7.889   0.573   9.863
22091SOL    HW178332   7.936   0.503   9.917
22091SOL    HW278333   7.956   0.621   9.806
22092SOL     OW78334   7.567   1.269   9.319
22092SOL    HW178335   7.553   1.276   9.221
22092SOL    HW278336   7.650   1.319   9.344
22093SOL     OW78337   8.077   1.669   9.451
22093SOL    HW178338   8.016   1.738   9.412
22093SOL    HW278339   8.025   1.610   9.513
22094SOL     OW78340   7.450   0.864   9.772
22094SOL    HW178341   7.452   0.963   9.761
22094SOL    HW278342   7.366   0.837   9.819
22095SOL     OW78343   8.708   1.241   9.603
22095SOL    HW178344   8.774   1.229   9.677
22095SOL    HW278345   8.740   1.191   9.522
22096SOL     OW78346   8.035   0.362   9.683
22096SOL    HW178347   7.953   0.306   9.671
22096SOL    HW278348   8.060   0.363   9.780
22097SOL     OW78349   8.934   0.038   9.939
22097SOL    HW178350   8.950   0.021   9.842
22097SOL    HW278351   9.002   0.102   9.974
22098SOL     OW78352   8.726   0.460   9.931
22098SOL    HW178353   8.712   0.425   9.838
22098SOL    HW278354   8.824   0.465   9.950
22099SOL     OW78355   8.467   3.301   0.761
22099SOL    HW178356   8.563   3.328   0.759
22099SOL    HW278357   8.427   3.313   0.670
22100SOL     OW78358   9.005   3.129   0.555
22100SOL    HW178359   9.017   3.196   0.628
22100SOL    HW278360   9.094   3.088   0.533
22101SOL     OW78361   8.984   2.517   1.395
22101SOL    HW178362   8.923   2.462   1.453
22101SOL    HW278363   9.049   2.566   1.452
22102SOL     OW78364   7.818   2.087   0.065
22102SOL    HW178365   7.798   2.003   0.014
22102SOL    HW278366   7.856   2.156   0.002
22103SOL     OW78367   8.731   3.385   0.793
22103SOL    HW178368   8.744   3.484   0.795
22103SOL    HW278369   8.819   3.340   0.775
22104SOL     OW78370   8.617   1.899   1.306
22104SOL    HW178371   8.536   1.861   1.352
22104SOL    HW278372   8.650   1.835   1.237
22105SOL     OW78373   7.967   3.335   0.417
22105SOL    HW178374   7.913   3.360   0.498
22105SOL    HW278375   8.033   3.264   0.443
22106SOL     OW78376   8.001   1.903   0.194
22106SOL    HW178377   8.093   1.939   0.179
22106SOL    HW278378   7.933   1.968   0.160
22107SOL     OW78379   8.992   2.892   1.548
22107SOL    HW178380   8.896   2.914   1.529
22107SOL    HW278381   9.049   2.923   1.472
22108SOL     OW78382   8.805   2.912   1.217
22108SOL    HW178383   8.773   2.914   1.311
22108SOL    HW278384   8.852   2.998   1.196
22109SOL     OW78385   8.393   3.176   1.470
22109SOL    HW178386   8.319   3.243   1.460
22109SOL    HW278387   8.378   3.102   1.405
22110SOL     OW78388   7.860   3.059   0.701
22110SOL    HW178389   7.806   3.012   0.771
22110SOL    HW278390   7.956   3.034   0.711
22111SOL     OW78391   8.116   2.470   0.575
22111SOL    HW178392   8.131   2.545   0.512
22111SOL    HW278393   8.087   2.388   0.524
22112SOL     OW78394   8.680   2.373   1.785
22112SOL    HW178395   8.779   2.371   1.794
22112SOL    HW278396   8.639   2.297   1.835
22113SOL     OW78397   7.835   3.275   0.178
22113SOL    HW178398   7.867   3.329   0.100
22113SOL    HW278399   7.881   3.307   0.261
22114SOL     OW78400   7.927   2.136   1.020
22114SOL    HW178401   7.987   2.215   1.013
22114SOL    HW278402   7.967   2.059   0.971
22115SOL     OW78403   7.695   2.670   0.489
22115SOL    HW178404   7.714   2.669   0.587
22115SOL    HW278405   7.599   2.695   0.474
22116SOL     OW78406   8.187   3.548   0.626
22116SOL    HW178407   8.236   3.470   0.588
22116SOL    HW278408   8.176   3.619   0.557
22117SOL     OW78409   9.028   2.184   1.120
22117SOL    HW178410   9.066   2.275   1.137
22117SOL    HW278411   8.929   2.190   1.118
22118SOL     OW78412   8.432   2.171   0.304
22118SOL    HW178413   8.489   2.254   0.305
22118SOL    HW278414   8.434   2.129   0.394
22119SOL     OW78415   7.568   2.854   1.621
22119SOL    HW178416   7.658   2.878   1.657
22119SOL    HW278417   7.511   2.816   1.694
22120SOL     OW78418   7.857   2.469   0.077
22120SOL    HW178419   7.883   2.562   0.048
22120SOL    HW278420   7.900   2.402   0.016
22121SOL     OW78421   7.968   3.529   0.794
22121SOL    HW178422   8.049   3.541   0.738
22121SOL    HW278423   7.915   3.451   0.760
22122SOL     OW78424   9.004   3.293   0.800
22122SOL    HW178425   8.995   3.321   0.896
22122SOL    HW278426   9.066   3.355   0.753
22123SOL     OW78427   7.725   3.096   0.456
22123SOL    HW178428   7.766   3.082   0.546
22123SOL    HW278429   7.789   3.065   0.386
22124SOL     OW78430   8.557   2.073   0.070
22124SOL    HW178431   8.636   2.025   0.108
22124SOL    HW278432   8.506   2.117   0.143
22125SOL     OW78433   7.762   2.380   1.165
22125SOL    HW178434   7.752   2.287   1.200
22125SOL    HW278435   7.679   2.432   1.185
22126SOL     OW78436   8.761   2.642   1.293
22126SOL    HW178437   8.783   2.734   1.259
22126SOL    HW278438   8.844   2.600   1.331
22127SOL     OW78439   7.778   2.144   0.478
22127SOL    HW178440   7.724   2.176   0.556
22127SOL    HW278441   7.734   2.172   0.393
22128SOL     OW78442   8.940   3.614   1.295
22128SOL    HW178443   8.871   3.616   1.223
22128SOL    HW278444   9.030   3.600   1.253
22129SOL     OW78445   9.120   2.436   1.173
22129SOL    HW178446   9.213   2.472   1.175
22129SOL    HW278447   9.070   2.466   1.254
22130SOL     OW78448   9.183   3.563   1.166
22130SOL    HW178449   9.223   3.597   1.251
22130SOL    HW278450   9.254   3.555   1.096
22131SOL     OW78451   8.360   2.333   0.609
22131SOL    HW178452   8.408   2.368   0.690
22131SOL    HW278453   8.277   2.387   0.594
22132SOL     OW78454   8.539   2.800   0.179
22132SOL    HW178455   8.576   2.738   0.248
22132SOL    HW278456   8.446   2.826   0.205
22133SOL     OW78457   8.316   2.337   1.883
22133SOL    HW178458   8.405   2.293   1.868
22133SOL    HW278459   8.267   2.289   1.955
22134SOL     OW78460   9.116   2.524   0.379
22134SOL    HW178461   9.064   2.438   0.378
22134SOL    HW278462   9.167   2.530   0.465
22135SOL     OW78463   8.355   3.550   0.119
22135SOL    HW178464   8.347   3.573   0.022
22135SOL    HW278465   8.266   3.522   0.154
22136SOL     OW78466   8.030   2.001   1.709
22136SOL    HW178467   7.963   1.929   1.691
22136SOL    HW278468   8.070   1.987   1.799
22137SOL     OW78469   9.051   2.528   0.925
22137SOL    HW178470   9.009   2.618   0.929
22137SOL    HW278471   9.068   2.494   1.017
22138SOL     OW78472   8.480   3.084   1.724
22138SOL    HW178473   8.505   2.988   1.714
22138SOL    HW278474   8.438   3.117   1.640
22139SOL     OW78475   8.148   2.975   1.727
22139SOL    HW178476   8.105   3.065   1.738
22139SOL    HW278477   8.183   2.944   1.816
22140SOL     OW78478   8.761   1.833   0.878
22140SOL    HW178479   8.716   1.921   0.886
22140SOL    HW278480   8.852   1.845   0.838
22141SOL     OW78481   9.109   2.057   1.798
22141SOL    HW178482   9.084   2.107   1.881
22141SOL    HW278483   9.092   1.959   1.811
22142SOL     OW78484   7.395   2.465   0.526
22142SOL    HW178485   7.416   2.434   0.619
22142SOL    HW278486   7.410   2.563   0.519
22143SOL     OW78487   7.705   2.052   0.859
22143SOL    HW178488   7.772   2.092   0.922
22143SOL    HW278489   7.744   1.970   0.817
22144SOL     OW78490   7.760   2.102   1.241
22144SOL    HW178491   7.747   2.006   1.266
22144SOL    HW278492   7.821   2.108   1.162
22145SOL     OW78493   8.507   2.641   0.963
22145SOL    HW178494   8.568   2.705   0.915
22145SOL    HW278495   8.484   2.565   0.902
22146SOL     OW78496   7.608   3.349   0.387
22146SOL    HW178497   7.652   3.261   0.404
22146SOL    HW278498   7.665   3.404   0.325
22147SOL     OW78499   8.858   3.197   1.221
22147SOL    HW178500   8.799   3.221   1.143
22147SOL    HW278501   8.805   3.199   1.305
22148SOL     OW78502   7.560   3.412   0.651
22148SOL    HW178503   7.464   3.417   0.679
22148SOL    HW278504   7.565   3.395   0.553
22149SOL     OW78505   9.131   3.230   1.290
22149SOL    HW178506   9.155   3.261   1.381
22149SOL    HW278507   9.032   3.220   1.283
22150SOL     OW78508   7.889   2.742   0.034
22150SOL    HW178509   7.830   2.803   9.982
22150SOL    HW278510   7.871   2.752   0.132
22151SOL     OW78511   8.331   2.976   1.290
22151SOL    HW178512   8.365   2.885   1.266
22151SOL    HW278513   8.274   3.010   1.215
22152SOL     OW78514   7.507   2.667   0.180
22152SOL    HW178515   7.570   2.600   0.219
22152SOL    HW278516   7.422   2.667   0.233
22153SOL     OW78517   8.934   2.734   0.371
22153SOL    HW178518   8.998   2.658   0.374
22153SOL    HW278519   8.959   2.796   0.297
22154SOL     OW78520   8.229   3.650   1.087
22154SOL    HW178521   8.279   3.600   1.017
22154SOL    HW278522   8.154   3.594   1.121
22155SOL     OW78523   8.155   2.781   0.080
22155SOL    HW178524   8.207   2.698   0.100
22155SOL    HW278525   8.061   2.757   0.055
22156SOL     OW78526   8.736   2.259   0.454
22156SOL    HW178527   8.688   2.314   0.385
22156SOL    HW278528   8.833   2.280   0.452
22157SOL     OW78529   7.644   2.440   1.516
22157SOL    HW178530   7.627   2.351   1.475
22157SOL    HW278531   7.621   2.437   1.613
22158SOL     OW78532   7.577   2.181   1.437
22158SOL    HW178533   7.643   2.151   1.369
22158SOL    HW278534   7.485   2.156   1.407
22159SOL     OW78535   8.364   2.715   1.189
22159SOL    HW178536   8.416   2.694   1.106
22159SOL    HW278537   8.268   2.687   1.175
22160SOL     OW78538   9.008   2.277   0.481
22160SOL    HW178539   9.101   2.244   0.466
22160SOL    HW278540   8.995   2.297   0.578
22161SOL     OW78541   8.307   3.499   0.874
22161SOL    HW178542   8.369   3.422   0.856
22161SOL    HW278543   8.262   3.526   0.788
22162SOL     OW78544   8.200   2.324   0.284
22162SOL    HW178545   8.131   2.281   0.343
22162SOL    HW278546   8.284   2.269   0.286
22163SOL     OW78547   8.383   3.121   0.193
22163SOL    HW178548   8.435   3.123   0.278
22163SOL    HW278549   8.437   3.162   0.120
22164SOL     OW78550   9.161   3.479   0.683
22164SOL    HW178551   9.128   3.566   0.718
22164SOL    HW278552   9.164   3.482   0.583
22165SOL     OW78553   8.567   2.736   0.600
22165SOL    HW178554   8.607   2.764   0.687
22165SOL    HW278555   8.473   2.770   0.595
22166SOL     OW78556   8.262   3.482   1.610
22166SOL    HW178557   8.214   3.420   1.548
22166SOL    HW278558   8.260   3.445   1.703
22167SOL     OW78559   8.690   2.811   0.838
22167SOL    HW178560   8.779   2.785   0.875
22167SOL    HW278561   8.656   2.892   0.887
22168SOL     OW78562   7.710   2.933   0.898
22168SOL    HW178563   7.623   2.981   0.895
22168SOL    HW278564   7.735   2.916   0.994
22169SOL     OW78565   8.311   2.837   0.560
22169SOL    HW178566   8.258   2.778   0.499
22169SOL    HW278567   8.250   2.878   0.628
22170SOL     OW78568   8.673   3.207   1.425
22170SOL    HW178569   8.715   3.293   1.455
22170SOL    HW278570   8.574   3.213   1.435
22171SOL     OW78571   7.447   2.135   0.448
22171SOL    HW178572   7.497   2.172   0.369
22171SOL    HW278573   7.493   2.164   0.532
22172SOL     OW78574   9.060   3.700   0.251
22172SOL    HW178575   9.151   3.730   0.222
22172SOL    HW278576   9.042   3.609   0.215
22173SOL     OW78577   7.458   3.695   1.424
22173SOL    HW178578   7.415   3.784   1.436
22173SOL    HW278579   7.452   3.643   1.509
22174SOL     OW78580   8.156   2.670   0.392
22174SOL    HW178581   8.065   2.701   0.363
22174SOL    HW278582   8.204   2.631   0.314
22175SOL     OW78583   7.726   2.451   0.899
22175SOL    HW178584   7.795   2.407   0.842
22175SOL    HW278585   7.741   2.425   0.995
22176SOL     OW78586   7.699   3.582   0.240
22176SOL    HW178587   7.780   3.617   0.193
22176SOL    HW278588   7.690   3.628   0.329
22177SOL     OW78589   8.784   3.574   1.074
22177SOL    HW178590   8.768   3.619   0.985
22177SOL    HW278591   8.850   3.500   1.062
22178SOL     OW78592   7.458   3.052   0.946
22178SOL    HW178593   7.373   3.047   0.893
22178SOL    HW278594   7.452   2.989   1.024
22179SOL     OW78595   8.065   1.907   0.464
22179SOL    HW178596   8.031   1.893   0.371
22179SOL    HW278597   8.080   2.005   0.479
22180SOL     OW78598   7.465   3.008   0.433
22180SOL    HW178599   7.557   3.043   0.446
22180SOL    HW278600   7.450   2.988   0.336
22181SOL     OW78601   8.976   2.149   1.566
22181SOL    HW178602   8.930   2.238   1.569
22181SOL    HW278603   9.024   2.134   1.653
22182SOL     OW78604   8.644   2.082   0.918
22182SOL    HW178605   8.665   2.143   0.841
22182SOL    HW278606   8.683   2.120   1.002
22183SOL     OW78607   8.742   1.928   0.218
22183SOL    HW178608   8.722   1.834   0.191
22183SOL    HW278609   8.710   1.943   0.312
22184SOL     OW78610   8.976   1.875   1.538
22184SOL    HW178611   8.966   1.847   1.442
22184SOL    HW278612   8.974   1.975   1.543
22185SOL     OW78613   8.126   2.142   0.736
22185SOL    HW178614   8.082   2.062   0.777
22185SOL    HW278615   8.223   2.145   0.763
22186SOL     OW78616   8.618   2.464   1.143
22186SOL    HW178617   8.581   2.525   1.074
22186SOL    HW278618   8.672   2.518   1.209
22187SOL     OW78619   8.956   1.902   0.480
22187SOL    HW178620   8.974   1.862   0.390
22187SOL    HW278621   8.860   1.929   0.486
22188SOL     OW78622   8.016   3.224   1.745
22188SOL    HW178623   7.970   3.283   1.679
22188SOL    HW278624   8.097   3.271   1.781
22189SOL     OW78625   7.821   2.933   1.698
22189SOL    HW178626   7.843   2.901   1.606
22189SOL    HW278627   7.852   3.027   1.709
22190SOL     OW78628   7.513   3.266   1.112
22190SOL    HW178629   7.497   3.201   1.038
22190SOL    HW278630   7.436   3.263   1.176
22191SOL     OW78631   8.489   2.396   0.840
22191SOL    HW178632   8.574   2.355   0.808
22191SOL    HW278633   8.454   2.346   0.919
22192SOL     OW78634   9.168   2.467   1.724
22192SOL    HW178635   9.161   2.543   1.660
22192SOL    HW278636   9.263   2.440   1.734
22193SOL     OW78637   8.750   2.220   1.134
22193SOL    HW178638   8.711   2.312   1.130
22193SOL    HW278639   8.745   2.186   1.228
22194SOL     OW78640   8.946   2.341   1.814
22194SOL    HW178641   9.026   2.389   1.778
22194SOL    HW278642   8.971   2.290   1.896
22195SOL     OW78643   8.670   2.651   0.366
22195SOL    HW178644   8.630   2.675   0.454
22195SOL    HW278645   8.766   2.677   0.365
22196SOL     OW78646   8.919   2.828   0.637
22196SOL    HW178647   8.923   2.801   0.541
22196SOL    HW278648   8.824   2.843   0.664
22197SOL     OW78649   9.157   2.673   1.541
22197SOL    HW178650   9.091   2.747   1.540
22197SOL    HW278651   9.250   2.710   1.542
22198SOL     OW78652   8.962   2.109   0.238
22198SOL    HW178653   8.964   2.147   0.331
22198SOL    HW278654   8.883   2.048   0.229
22199SOL     OW78655   8.128   3.341   1.419
22199SOL    HW178656   8.064   3.418   1.422
22199SOL    HW278657   8.104   3.282   1.341
22200SOL     OW78658   7.540   2.115   1.710
22200SOL    HW178659   7.556   2.127   1.612
22200SOL    HW278660   7.445   2.087   1.725
22201SOL     OW78661   7.461   3.535   1.644
22201SOL    HW178662   7.546   3.536   1.697
22201SOL    HW278663   7.383   3.544   1.706
22202SOL     OW78664   7.587   2.202   0.670
22202SOL    HW178665   7.544   2.282   0.710
22202SOL    HW278666   7.632   2.148   0.742
22203SOL     OW78667   8.817   3.439   1.475
22203SOL    HW178668   8.740   3.487   1.517
22203SOL    HW278669   8.863   3.500   1.410
22204SOL     OW78670   7.679   2.478   0.281
22204SOL    HW178671   7.754   2.480   0.216
22204SOL    HW278672   7.703   2.530   0.363
22205SOL     OW78673   9.146   2.083   1.357
22205SOL    HW178674   9.085   2.119   1.428
22205SOL    HW278675   9.110   2.107   1.267
22206SOL     OW78676   7.680   3.597   0.816
22206SOL    HW178677   7.634   3.537   0.750
22206SOL    HW278678   7.779   3.593   0.802
22207SOL     OW78679   7.752   3.173   1.217
22207SOL    HW178680   7.747   3.179   1.317
22207SOL    HW278681   7.671   3.216   1.177
22208SOL     OW78682   8.665   3.300   1.729
22208SOL    HW178683   8.603   3.222   1.732
22208SOL    HW278684   8.621   3.376   1.681
22209SOL     OW78685   8.139   3.130   0.500
22209SOL    HW178686   8.157   3.067   0.425
22209SOL    HW278687   8.138   3.080   0.587
22210SOL     OW78688   7.697   2.689   0.763
22210SOL    HW178689   7.717   2.773   0.814
22210SOL    HW278690   7.721   2.610   0.820
22211SOL     OW78691   7.643   2.207   0.246
22211SOL    HW178692   7.711   2.175   0.180
22211SOL    HW278693   7.645   2.307   0.250
22212SOL     OW78694   7.469   2.414   0.792
22212SOL    HW178695   7.391   2.451   0.843
22212SOL    HW278696   7.554   2.436   0.840
22213SOL     OW78697   7.906   3.023   0.259
22213SOL    HW178698   8.006   3.015   0.266
22213SOL    HW278699   7.883   3.111   0.219
22214SOL     OW78700   8.522   2.498   0.005
22214SOL    HW178701   8.518   2.588   9.961
22214SOL    HW278702   8.599   2.446   9.969
22215SOL     OW78703   8.284   2.555   0.165
22215SOL    HW178704   8.370   2.535   0.117
22215SOL    HW278705   8.247   2.470   0.203
22216SOL     OW78706   8.687   1.994   0.478
22216SOL    HW178707   8.596   1.987   0.520
22216SOL    HW278708   8.712   2.091   0.470
22217SOL     OW78709   8.799   2.364   1.526
22217SOL    HW178710   8.745   2.388   1.607
22217SOL    HW278711   8.749   2.297   1.471
22218SOL     OW78712   7.478   2.011   0.139
22218SOL    HW178713   7.526   1.923   0.147
22218SOL    HW278714   7.535   2.084   0.175
22219SOL     OW78715   7.754   2.905   1.169
22219SOL    HW178716   7.791   2.864   1.253
22219SOL    HW278717   7.755   3.005   1.177
22220SOL     OW78718   9.041   2.879   0.161
22220SOL    HW178719   9.133   2.897   0.194
22220SOL    HW278720   9.045   2.837   0.071
22221SOL     OW78721   8.003   2.511   1.185
22221SOL    HW178722   8.009   2.549   1.277
22221SOL    HW278723   7.914   2.468   1.172
22222SOL     OW78724   8.127   2.910   1.465
22222SOL    HW178725   8.208   2.934   1.412
22222SOL    HW278726   8.144   2.930   1.562
22223SOL     OW78727   8.555   2.814   1.654
22223SOL    HW178728   8.524   2.765   1.572
22223SOL    HW278729   8.641   2.774   1.686
22224SOL     OW78730   8.432   2.076   0.571
22224SOL    HW178731   8.409   2.173   0.581
22224SOL    HW278732   8.405   2.026   0.654
22225SOL     OW78733   8.590   3.542   1.586
22225SOL    HW178734   8.524   3.557   1.512
22225SOL    HW278735   8.571   3.605   1.661
22226SOL     OW78736   8.019   1.932   0.867
22226SOL    HW178737   7.954   1.875   0.818
22226SOL    HW278738   8.096   1.876   0.899
22227SOL     OW78739   7.690   3.644   1.295
22227SOL    HW178740   7.663   3.601   1.209
22227SOL    HW278741   7.609   3.661   1.351
22228SOL     OW78742   8.368   3.076   0.878
22228SOL    HW178743   8.398   3.161   0.835
22228SOL    HW278744   8.445   3.033   0.926
22229SOL     OW78745   8.059   2.806   0.945
22229SOL    HW178746   8.093   2.720   0.907
22229SOL    HW278747   7.980   2.787   1.004
22230SOL     OW78748   7.476   2.870   1.149
22230SOL    HW178749   7.571   2.873   1.179
22230SOL    HW278750   7.465   2.799   1.079
22231SOL     OW78751   7.704   1.879   0.437
22231SOL    HW178752   7.740   1.970   0.455
22231SOL    HW278753   7.616   1.868   0.483
22232SOL     OW78754   7.442   2.935   0.166
22232SOL    HW178755   7.477   2.842   0.160
22232SOL    HW278756   7.507   2.998   0.123
22233SOL     OW78757   9.119   2.103   0.871
22233SOL    HW178758   9.089   2.120   0.965
22233SOL    HW278759   9.219   2.106   0.868
22234SOL     OW78760   8.174   3.029   1.068
22234SOL    HW178761   8.131   2.946   1.032
22234SOL    HW278762   8.244   3.060   1.003
22235SOL     OW78763   8.588   2.404   0.271
22235SOL    HW178764   8.611   2.491   0.314
22235SOL    HW278765   8.571   2.419   0.173
22236SOL     OW78766   8.955   3.321   1.678
22236SOL    HW178767   8.896   3.259   1.729
22236SOL    HW278768   8.904   3.364   1.604
22237SOL     OW78769   7.560   2.677   1.413
22237SOL    HW178770   7.600   2.594   1.450
22237SOL    HW278771   7.576   2.753   1.476
22238SOL     OW78772   8.151   3.234   0.092
22238SOL    HW178773   8.129   3.328   0.121
22238SOL    HW278774   8.239   3.207   0.130
22239SOL     OW78775   8.011   3.485   1.116
22239SOL    HW178776   7.988   3.493   1.019
22239SOL    HW278777   8.019   3.388   1.140
22240SOL     OW78778   8.145   2.978   0.742
22240SOL    HW178779   8.225   3.022   0.784
22240SOL    HW278780   8.107   2.912   0.807
22241SOL     OW78781   8.328   3.334   0.525
22241SOL    HW178782   8.397   3.335   0.452
22241SOL    HW278783   8.267   3.256   0.511
22242SOL     OW78784   7.474   2.688   0.948
22242SOL    HW178785   7.530   2.695   0.865
22242SOL    HW278786   7.386   2.646   0.925
22243SOL     OW78787   7.417   2.762   1.822
22243SOL    HW178788   7.318   2.759   1.806
22243SOL    HW278789   7.441   2.708   1.902
22244SOL     OW78790   8.394   3.595   1.394
22244SOL    HW178791   8.338   3.563   1.470
22244SOL    HW278792   8.340   3.657   1.336
22245SOL     OW78793   8.604   3.003   1.016
22245SOL    HW178794   8.622   3.101   1.020
22245SOL    HW278795   8.643   2.958   1.096
22246SOL     OW78796   7.849   2.338   1.828
22246SOL    HW178797   7.915   2.337   1.752
22246SOL    HW278798   7.871   2.412   1.890
22247SOL     OW78799   7.895   2.755   0.318
22247SOL    HW178800   7.892   2.855   0.311
22247SOL    HW278801   7.826   2.725   0.384
22248SOL     OW78802   8.933   2.789   0.978
22248SOL    HW178803   8.975   2.867   0.933
22248SOL    HW278804   8.902   2.815   1.070
22249SOL     OW78805   8.739   2.126   1.390
22249SOL    HW178806   8.814   2.103   1.452
22249SOL    HW278807   8.690   2.043   1.365
22250SOL     OW78808   7.385   1.868   0.471
22250SOL    HW178809   7.286   1.870   0.484
22250SOL    HW278810   7.419   1.961   0.457
22251SOL     OW78811   8.615   1.913   1.801
22251SOL    HW178812   8.686   1.904   1.871
22251SOL    HW278813   8.572   2.003   1.808
22252SOL     OW78814   7.860   3.403   1.596
22252SOL    HW178815   7.800   3.451   1.659
22252SOL    HW278816   7.885   3.465   1.521
22253SOL     OW78817   9.197   3.298   1.551
22253SOL    HW178818   9.247   3.383   1.569
22253SOL    HW278819   9.111   3.299   1.601
22254SOL     OW78820   8.404   2.294   1.088
22254SOL    HW178821   8.474   2.355   1.127
22254SOL    HW278822   8.427   2.199   1.111
22255SOL     OW78823   7.824   3.332   0.672
22255SOL    HW178824   7.837   3.234   0.688
22255SOL    HW278825   7.727   3.353   0.669
22256SOL     OW78826   8.563   3.456   1.208
22256SOL    HW178827   8.500   3.504   1.269
22256SOL    HW278828   8.630   3.521   1.171
22257SOL     OW78829   7.706   3.549   1.773
22257SOL    HW178830   7.744   3.642   1.772
22257SOL    HW278831   7.714   3.511   1.865
22258SOL     OW78832   7.529   3.126   1.644
22258SOL    HW178833   7.517   3.030   1.620
22258SOL    HW278834   7.455   3.180   1.604
22259SOL     OW78835   7.581   3.533   1.068
22259SOL    HW178836   7.563   3.435   1.074
22259SOL    HW278837   7.617   3.554   0.977
22260SOL     OW78838   8.376   2.026   0.848
22260SOL    HW178839   8.470   2.038   0.879
22260SOL    HW278840   8.330   1.960   0.908
22261SOL     OW78841   8.466   3.047   0.451
22261SOL    HW178842   8.555   3.058   0.494
22261SOL    HW278843   8.416   2.973   0.495
22262SOL     OW78844   8.984   2.317   0.755
22262SOL    HW178845   9.005   2.399   0.807
22262SOL    HW278846   9.034   2.239   0.793
22263SOL     OW78847   8.174   2.973   0.275
22263SOL    HW178848   8.253   3.029   0.249
22263SOL    HW278849   8.169   2.893   0.216
22264SOL     OW78850   8.254   1.997   0.159
22264SOL    HW178851   8.301   1.910   0.140
22264SOL    HW278852   8.314   2.056   0.213
22265SOL     OW78853   7.927   2.344   0.751
22265SOL    HW178854   7.990   2.268   0.767
22265SOL    HW278855   7.972   2.413   0.695
22266SOL     OW78856   7.862   2.916   1.426
22266SOL    HW178857   7.961   2.907   1.431
22266SOL    HW278858   7.837   3.012   1.439
22267SOL     OW78859   9.144   2.958   1.334
22267SOL    HW178860   9.150   3.057   1.316
22267SOL    HW278861   9.194   2.908   1.264
22268SOL     OW78862   7.619   3.129   0.071
22268SOL    HW178863   7.540   3.180   0.035
22268SOL    HW278864   7.677   3.191   0.123
22269SOL     OW78865   8.090   3.482   0.203
22269SOL    HW178866   8.041   3.566   0.178
22269SOL    HW278867   8.059   3.451   0.292
22270SOL     OW78868   8.732   2.949   1.477
22270SOL    HW178869   8.667   2.908   1.541
22270SOL    HW278870   8.711   3.047   1.467
22271SOL     OW78871   7.935   3.565   1.378
22271SOL    HW178872   7.986   3.551   1.292
22271SOL    HW278873   7.841   3.592   1.357
22272SOL     OW78874   7.576   2.378   1.777
22272SOL    HW178875   7.551   2.283   1.759
22272SOL    HW278876   7.671   2.382   1.807
22273SOL     OW78877   8.993   3.391   1.056
22273SOL    HW178878   9.066   3.450   1.090
22273SOL    HW278879   8.974   3.319   1.124
22274SOL     OW78880   7.427   2.739   0.485
22274SOL    HW178881   7.438   2.838   0.492
22274SOL    HW278882   7.350   2.719   0.425
22275SOL     OW78883   9.017   3.014   0.836
22275SOL    HW178884   9.002   3.112   0.828
22275SOL    HW278885   8.987   2.969   0.753
22276SOL     OW78886   8.134   2.345   1.015
22276SOL    HW178887   8.229   2.327   1.041
22276SOL    HW278888   8.092   2.408   1.081
22277SOL     OW78889   8.023   3.222   1.191
22277SOL    HW178890   7.926   3.196   1.194
22277SOL    HW278891   8.075   3.150   1.146
22278SOL     OW78892   7.544   2.544   1.177
22278SOL    HW178893   7.549   2.602   1.257
22278SOL    HW278894   7.532   2.600   1.095
22279SOL     OW78895   7.757   3.172   1.492
22279SOL    HW178896   7.800   3.256   1.526
22279SOL    HW278897   7.675   3.153   1.546
22280SOL     OW78898   9.059   3.579   1.732
22280SOL    HW178899   9.022   3.486   1.741
22280SOL    HW278900   9.005   3.629   1.665
22281SOL     OW78901   8.740   3.051   0.521
22281SOL    HW178902   8.834   3.079   0.539
22281SOL    HW278903   8.732   3.022   0.425
22282SOL     OW78904   8.045   2.208   0.485
22282SOL    HW178905   7.948   2.187   0.481
22282SOL    HW278906   8.080   2.186   0.576
22283SOL     OW78907   9.004   1.878   0.752
22283SOL    HW178908   8.987   1.894   0.654
22283SOL    HW278909   9.048   1.959   0.791
22284SOL     OW78910   8.514   2.681   1.419
22284SOL    HW178911   8.606   2.659   1.387
22284SOL    HW278912   8.452   2.689   1.341
22285SOL     OW78913   8.136   2.568   0.839
22285SOL    HW178914   8.132   2.486   0.896
22285SOL    HW278915   8.139   2.541   0.743
22286SOL     OW78916   8.666   3.267   1.038
22286SOL    HW178917   8.617   3.327   1.100
22286SOL    HW278918   8.679   3.312   0.950
22287SOL     OW78919   8.712   2.272   0.732
22287SOL    HW178920   8.697   2.268   0.633
22287SOL    HW278921   8.808   2.294   0.751
22288SOL     OW78922   8.479   3.259   2.505
22288SOL    HW178923   8.564   3.223   2.466
22288SOL    HW278924   8.423   3.299   2.433
22289SOL     OW78925   8.988   3.119   2.420
22289SOL    HW178926   9.023   3.179   2.492
22289SOL    HW278927   9.063   3.065   2.382
22290SOL     OW78928   9.001   2.500   3.239
22290SOL    HW178929   8.938   2.447   3.296
22290SOL    HW278930   9.059   2.556   3.298
22291SOL     OW78931   7.742   2.093   1.902
22291SOL    HW178932   7.672   2.076   1.833
22291SOL    HW278933   7.797   2.171   1.875
22292SOL     OW78934   8.591   1.922   3.168
22292SOL    HW178935   8.504   1.885   3.202
22292SOL    HW278936   8.631   1.859   3.102
22293SOL     OW78937   8.363   2.719   3.608
22293SOL    HW178938   8.333   2.682   3.520
22293SOL    HW278939   8.283   2.746   3.662
22294SOL     OW78940   7.959   3.340   2.270
22294SOL    HW178941   7.898   3.355   2.348
22294SOL    HW278942   8.024   3.268   2.292
22295SOL     OW78943   7.919   1.903   2.038
22295SOL    HW178944   8.008   1.932   2.004
22295SOL    HW278945   7.847   1.960   1.998
22296SOL     OW78946   8.978   2.893   3.386
22296SOL    HW178947   8.884   2.919   3.364
22296SOL    HW278948   9.039   2.923   3.313
22297SOL     OW78949   8.823   2.898   3.079
22297SOL    HW178950   8.776   2.906   3.168
22297SOL    HW278951   8.854   2.988   3.050
22298SOL     OW78952   8.390   3.192   3.320
22298SOL    HW178953   8.328   3.264   3.290
22298SOL    HW278954   8.375   3.110   3.265
22299SOL     OW78955   7.860   3.074   2.563
22299SOL    HW178956   7.814   3.020   2.634
22299SOL    HW278957   7.956   3.048   2.558
22300SOL     OW78958   8.146   2.489   2.392
22300SOL    HW178959   8.161   2.570   2.335
22300SOL    HW278960   8.098   2.419   2.340
22301SOL     OW78961   8.700   2.359   3.644
22301SOL    HW178962   8.799   2.362   3.652
22301SOL    HW278963   8.665   2.280   3.693
22302SOL     OW78964   7.826   3.212   1.939
22302SOL    HW178965   7.899   3.215   1.871
22302SOL    HW278966   7.805   3.305   1.970
22303SOL     OW78967   7.945   2.163   2.868
22303SOL    HW178968   7.998   2.248   2.860
22303SOL    HW278969   7.994   2.089   2.823
22304SOL     OW78970   7.726   2.599   2.373
22304SOL    HW178971   7.768   2.636   2.456
22304SOL    HW278972   7.629   2.585   2.389
22305SOL     OW78973   8.204   3.611   2.427
22305SOL    HW178974   8.241   3.538   2.370
22305SOL    HW278975   8.219   3.699   2.382
22306SOL     OW78976   9.047   2.178   2.965
22306SOL    HW178977   9.086   2.269   2.981
22306SOL    HW278978   8.947   2.184   2.964
22307SOL     OW78979   8.459   2.230   2.179
22307SOL    HW178980   8.503   2.320   2.178
22307SOL    HW278981   8.472   2.187   2.268
22308SOL     OW78982   7.553   2.851   3.454
22308SOL    HW178983   7.645   2.884   3.477
22308SOL    HW278984   7.509   2.816   3.537
22309SOL     OW78985   7.925   2.555   1.972
22309SOL    HW178986   7.900   2.651   1.964
22309SOL    HW278987   8.018   2.541   1.937
22310SOL     OW78988   8.004   3.543   2.598
22310SOL    HW178989   8.075   3.576   2.535
22310SOL    HW278990   7.963   3.459   2.561
22311SOL     OW78991   8.336   2.468   3.426
22311SOL    HW178992   8.362   2.391   3.485
22311SOL    HW278993   8.417   2.501   3.378
22312SOL     OW78994   9.121   3.247   2.635
22312SOL    HW178995   9.102   3.301   2.717
22312SOL    HW278996   9.202   3.284   2.589
22313SOL     OW78997   7.698   3.096   2.335
22313SOL    HW178998   7.749   3.090   2.421
22313SOL    HW278999   7.758   3.072   2.259
22314SOL     OW79000   8.581   2.166   1.941
22314SOL    HW179001   8.661   2.110   1.963
22314SOL    HW279002   8.531   2.187   2.025
22315SOL     OW79003   7.779   2.407   3.036
22315SOL    HW179004   7.771   2.309   3.056
22315SOL    HW279005   7.689   2.450   3.047
22316SOL     OW79006   8.781   2.627   3.133
22316SOL    HW179007   8.799   2.723   3.112
22316SOL    HW279008   8.865   2.585   3.168
22317SOL     OW79009   7.764   2.185   2.324
22317SOL    HW179010   7.704   2.191   2.404
22317SOL    HW279011   7.710   2.202   2.242
22318SOL     OW79012   8.932   3.580   3.168
22318SOL    HW179013   8.851   3.583   3.109
22318SOL    HW279014   9.014   3.582   3.111
22319SOL     OW79015   9.143   2.429   3.017
22319SOL    HW179016   9.237   2.461   3.024
22319SOL    HW279017   9.092   2.455   3.098
22320SOL     OW79018   9.181   3.584   3.026
22320SOL    HW179019   9.209   3.627   3.112
22320SOL    HW279020   9.261   3.572   2.967
22321SOL     OW79021   8.341   2.343   2.516
22321SOL    HW179022   8.403   2.398   2.571
22321SOL    HW279023   8.278   2.403   2.466
22322SOL     OW79024   8.637   2.825   2.017
22322SOL    HW179025   8.654   2.781   2.105
22322SOL    HW279026   8.598   2.758   1.953
22323SOL     OW79027   8.374   2.255   3.601
22323SOL    HW179028   8.442   2.233   3.671
22323SOL    HW279029   8.283   2.233   3.636
22324SOL     OW79030   9.129   2.524   2.230
22324SOL    HW179031   9.082   2.435   2.238
22324SOL    HW279032   9.194   2.535   2.305
22325SOL     OW79033   8.151   1.904   3.570
22325SOL    HW179034   8.179   1.813   3.540
22325SOL    HW279035   8.162   1.912   3.669
22326SOL     OW79036   9.069   2.527   2.772
22326SOL    HW179037   9.024   2.615   2.783
22326SOL    HW279038   9.089   2.488   2.862
22327SOL     OW79039   8.493   3.168   3.586
22327SOL    HW179040   8.534   3.077   3.581
22327SOL    HW279041   8.446   3.188   3.500
22328SOL     OW79042   8.119   2.984   3.579
22328SOL    HW179043   8.064   3.067   3.588
22328SOL    HW279044   8.124   2.937   3.667
22329SOL     OW79045   8.792   1.859   2.751
22329SOL    HW179046   8.740   1.944   2.744
22329SOL    HW279047   8.874   1.865   2.694
22330SOL     OW79048   9.142   2.065   3.653
22330SOL    HW179049   9.082   2.103   3.724
22330SOL    HW279050   9.195   1.989   3.691
22331SOL     OW79051   7.465   2.567   2.444
22331SOL    HW179052   7.461   2.497   2.516
22331SOL    HW279053   7.439   2.655   2.483
22332SOL     OW79054   7.744   2.064   2.688
22332SOL    HW179055   7.804   2.109   2.753
22332SOL    HW279056   7.792   1.989   2.643
22333SOL     OW79057   7.763   2.115   3.075
22333SOL    HW179058   7.744   2.018   3.085
22333SOL    HW279059   7.829   2.129   3.001
22334SOL     OW79060   8.388   2.677   2.787
22334SOL    HW179061   8.297   2.672   2.745
22334SOL    HW279062   8.447   2.608   2.747
22335SOL     OW79063   7.565   3.279   2.161
22335SOL    HW179064   7.606   3.223   2.233
22335SOL    HW279065   7.551   3.223   2.079
22336SOL     OW79066   8.861   3.180   3.071
22336SOL    HW179067   8.834   3.232   2.990
22336SOL    HW279068   8.792   3.190   3.142
22337SOL     OW79069   9.131   3.227   3.110
22337SOL    HW179070   9.152   3.263   3.201
22337SOL    HW279071   9.033   3.209   3.104
22338SOL     OW79072   7.886   2.822   1.937
22338SOL    HW179073   7.857   2.854   1.846
22338SOL    HW279074   7.861   2.890   2.006
22339SOL     OW79075   8.340   2.969   3.156
22339SOL    HW179076   8.374   2.879   3.130
22339SOL    HW279077   8.285   3.006   3.081
22340SOL     OW79078   7.479   2.644   2.059
22340SOL    HW179079   7.562   2.588   2.067
22340SOL    HW279080   7.405   2.602   2.112
22341SOL     OW79081   8.968   2.744   2.263
22341SOL    HW179082   9.024   2.662   2.251
22341SOL    HW279083   8.993   2.812   2.194
22342SOL     OW79084   8.294   3.555   2.907
22342SOL    HW179085   8.314   3.506   2.822
22342SOL    HW279086   8.195   3.571   2.914
22343SOL     OW79087   8.155   2.787   1.968
22343SOL    HW179088   8.183   2.702   1.923
22343SOL    HW279089   8.057   2.801   1.953
22344SOL     OW79090   8.747   2.296   2.288
22344SOL    HW179091   8.706   2.361   2.225
22344SOL    HW279092   8.847   2.304   2.284
22345SOL     OW79093   7.653   2.463   3.356
22345SOL    HW179094   7.630   2.376   3.313
22345SOL    HW279095   7.621   2.463   3.450
22346SOL     OW79096   7.578   2.204   3.269
22346SOL    HW179097   7.646   2.171   3.204
22346SOL    HW279098   7.487   2.174   3.240
22347SOL     OW79099   8.390   2.712   3.064
22347SOL    HW179100   8.389   2.690   2.966
22347SOL    HW279101   8.312   2.667   3.109
22348SOL     OW79102   9.025   2.279   2.310
22348SOL    HW179103   9.107   2.222   2.303
22348SOL    HW279104   9.008   2.301   2.407
22349SOL     OW79105   8.326   3.446   2.660
22349SOL    HW179106   8.389   3.381   2.617
22349SOL    HW279107   8.279   3.498   2.588
22350SOL     OW79108   8.204   2.205   2.098
22350SOL    HW179109   8.136   2.220   2.169
22350SOL    HW279110   8.295   2.213   2.137
22351SOL     OW79111   8.371   3.147   1.980
22351SOL    HW179112   8.422   3.119   2.061
22351SOL    HW279113   8.422   3.119   1.898
22352SOL     OW79114   8.572   2.755   2.463
22352SOL    HW179115   8.615   2.778   2.550
22352SOL    HW279116   8.485   2.805   2.454
22353SOL     OW79117   8.234   3.456   3.485
22353SOL    HW179118   8.190   3.404   3.412
22353SOL    HW279119   8.230   3.404   3.570
22354SOL     OW79120   8.721   2.812   2.692
22354SOL    HW179121   8.798   2.789   2.750
22354SOL    HW279122   8.653   2.864   2.744
22355SOL     OW79123   7.733   2.921   2.753
22355SOL    HW179124   7.643   2.962   2.739
22355SOL    HW279125   7.743   2.895   2.850
22356SOL     OW79126   8.326   2.877   2.405
22356SOL    HW179127   8.281   2.813   2.342
22356SOL    HW279128   8.260   2.910   2.472
22357SOL     OW79129   8.664   3.220   3.258
22357SOL    HW179130   8.706   3.302   3.298
22357SOL    HW279131   8.565   3.227   3.263
22358SOL     OW79132   7.422   2.156   2.300
22358SOL    HW179133   7.479   2.180   2.221
22358SOL    HW279134   7.475   2.171   2.384
22359SOL     OW79135   8.198   2.605   3.227
22359SOL    HW179136   8.187   2.691   3.278
22359SOL    HW279137   8.240   2.536   3.286
22360SOL     OW79138   7.457   3.674   3.246
22360SOL    HW179139   7.401   3.757   3.243
22360SOL    HW279140   7.449   3.631   3.336
22361SOL     OW79141   8.171   2.716   2.241
22361SOL    HW179142   8.075   2.740   2.257
22361SOL    HW279143   8.193   2.727   2.144
22362SOL     OW79144   7.708   2.463   2.769
22362SOL    HW179145   7.773   2.433   2.699
22362SOL    HW279146   7.745   2.442   2.860
22363SOL     OW79147   7.745   3.457   2.027
22363SOL    HW179148   7.801   3.527   2.070
22363SOL    HW279149   7.683   3.418   2.095
22364SOL     OW79150   8.704   3.556   3.007
22364SOL    HW179151   8.714   3.632   2.942
22364SOL    HW279152   8.730   3.471   2.962
22365SOL     OW79153   7.477   3.031   2.752
22365SOL    HW179154   7.427   2.999   2.672
22365SOL    HW279155   7.446   2.981   2.833
22366SOL     OW79156   7.978   1.936   2.309
22366SOL    HW179157   7.947   1.911   2.217
22366SOL    HW279158   8.019   2.026   2.308
22367SOL     OW79159   7.438   2.988   2.359
22367SOL    HW179160   7.525   3.035   2.371
22367SOL    HW279161   7.429   2.959   2.264
22368SOL     OW79162   8.988   2.135   3.424
22368SOL    HW179163   8.944   2.225   3.430
22368SOL    HW279164   9.043   2.120   3.506
22369SOL     OW79165   8.658   2.101   2.757
22369SOL    HW179166   8.674   2.166   2.683
22369SOL    HW279167   8.700   2.136   2.842
22370SOL     OW79168   8.788   1.990   2.029
22370SOL    HW179169   8.869   1.932   2.027
22370SOL    HW279170   8.749   1.990   2.121
22371SOL     OW79171   8.973   1.857   3.422
22371SOL    HW179172   8.960   1.823   3.329
22371SOL    HW279173   8.975   1.957   3.421
22372SOL     OW79174   8.103   2.203   2.566
22372SOL    HW179175   8.097   2.119   2.620
22372SOL    HW279176   8.196   2.240   2.570
22373SOL     OW79177   8.649   2.462   2.962
22373SOL    HW179178   8.647   2.507   2.873
22373SOL    HW279179   8.692   2.523   3.029
22374SOL     OW79180   8.963   1.915   2.319
22374SOL    HW179181   8.990   1.874   2.231
22374SOL    HW279182   8.869   1.948   2.312
22375SOL     OW79183   7.960   3.225   3.622
22375SOL    HW179184   7.916   3.292   3.562
22375SOL    HW279185   8.048   3.262   3.652
22376SOL     OW79186   7.805   2.947   3.508
22376SOL    HW179187   7.855   2.919   3.426
22376SOL    HW279188   7.817   3.045   3.523
22377SOL     OW79189   7.555   3.237   2.925
22377SOL    HW179190   7.529   3.175   2.851
22377SOL    HW279191   7.482   3.241   2.992
22378SOL     OW79192   8.521   2.453   2.696
22378SOL    HW179193   8.597   2.405   2.651
22378SOL    HW279194   8.481   2.392   2.765
22379SOL     OW79195   9.196   2.468   3.580
22379SOL    HW179196   9.173   2.540   3.514
22379SOL    HW279197   9.296   2.455   3.581
22380SOL     OW79198   8.771   2.217   2.983
22380SOL    HW179199   8.732   2.309   2.976
22380SOL    HW279200   8.761   2.184   3.077
22381SOL     OW79201   8.968   2.342   3.669
22381SOL    HW179202   9.054   2.384   3.639
22381SOL    HW279203   8.987   2.281   3.746
22382SOL     OW79204   8.703   2.683   2.242
22382SOL    HW179205   8.653   2.708   2.325
22382SOL    HW279206   8.800   2.706   2.254
22383SOL     OW79207   8.947   2.813   2.526
22383SOL    HW179208   8.946   2.794   2.428
22383SOL    HW279209   8.853   2.809   2.562
22384SOL     OW79210   9.145   2.672   3.394
22384SOL    HW179211   9.076   2.743   3.388
22384SOL    HW279212   9.236   2.713   3.395
22385SOL     OW79213   8.996   2.182   2.030
22385SOL    HW179214   9.018   2.211   2.123
22385SOL    HW279215   8.919   2.119   2.031
22386SOL     OW79216   8.109   3.328   3.280
22386SOL    HW179217   8.043   3.401   3.256
22386SOL    HW279218   8.081   3.243   3.235
22387SOL     OW79219   7.534   2.155   3.545
22387SOL    HW179220   7.545   2.166   3.446
22387SOL    HW279221   7.439   2.128   3.564
22388SOL     OW79222   7.435   3.551   3.492
22388SOL    HW179223   7.522   3.567   3.539
22388SOL    HW279224   7.360   3.557   3.558
22389SOL     OW79225   7.572   2.192   2.525
22389SOL    HW179226   7.530   2.269   2.573
22389SOL    HW279227   7.632   2.142   2.587
22390SOL     OW79228   8.792   3.436   3.362
22390SOL    HW179229   8.725   3.499   3.401
22390SOL    HW279230   8.848   3.484   3.294
22391SOL     OW79231   7.704   2.489   2.121
22391SOL    HW179232   7.786   2.508   2.068
22391SOL    HW279233   7.716   2.523   2.214
22392SOL     OW79234   9.151   2.074   3.206
22392SOL    HW179235   9.087   2.104   3.277
22392SOL    HW279236   9.114   2.100   3.116
22393SOL     OW79237   7.748   3.595   2.674
22393SOL    HW179238   7.710   3.679   2.636
22393SOL    HW279239   7.843   3.584   2.645
22394SOL     OW79240   7.754   3.139   3.092
22394SOL    HW179241   7.738   3.170   3.185
22394SOL    HW279242   7.688   3.183   3.030
22395SOL     OW79243   8.561   3.432   3.675
22395SOL    HW179244   8.536   3.339   3.648
22395SOL    HW279245   8.577   3.488   3.594
22396SOL     OW79246   8.139   3.149   2.348
22396SOL    HW179247   8.155   3.094   2.266
22396SOL    HW279248   8.137   3.089   2.429
22397SOL     OW79249   7.828   2.708   2.598
22397SOL    HW179250   7.797   2.783   2.656
22397SOL    HW279251   7.904   2.660   2.642
22398SOL     OW79252   7.608   2.227   2.105
22398SOL    HW179253   7.652   2.178   2.030
22398SOL    HW279254   7.628   2.325   2.097
22399SOL     OW79255   7.465   2.400   2.662
22399SOL    HW179256   7.386   2.436   2.712
22399SOL    HW279257   7.548   2.421   2.712
22400SOL     OW79258   7.878   3.028   2.131
22400SOL    HW179259   7.978   3.028   2.137
22400SOL    HW279260   7.850   3.100   2.067
22401SOL     OW79261   8.541   2.598   1.871
22401SOL    HW179262   8.500   2.655   1.800
22401SOL    HW279263   8.593   2.524   1.829
22402SOL     OW79264   8.706   2.027   2.288
22402SOL    HW179265   8.623   2.007   2.340
22402SOL    HW279266   8.724   2.125   2.290
22403SOL     OW79267   8.815   2.360   3.381
22403SOL    HW179268   8.761   2.380   3.462
22403SOL    HW279269   8.766   2.293   3.325
22404SOL     OW79270   7.461   1.902   2.021
22404SOL    HW179271   7.529   1.829   2.016
22404SOL    HW279272   7.506   1.988   2.045
22405SOL     OW79273   7.711   2.877   3.028
22405SOL    HW179274   7.707   2.815   3.106
22405SOL    HW279275   7.735   2.969   3.059
22406SOL     OW79276   9.057   2.897   2.058
22406SOL    HW179277   9.155   2.911   2.070
22406SOL    HW279278   9.035   2.893   1.961
22407SOL     OW79279   8.015   2.566   3.019
22407SOL    HW179280   8.065   2.579   3.104
22407SOL    HW279281   7.929   2.518   3.037
22408SOL     OW79282   8.206   2.843   3.365
22408SOL    HW179283   8.260   2.899   3.302
22408SOL    HW279284   8.183   2.896   3.446
22409SOL     OW79285   8.564   2.897   3.542
22409SOL    HW179286   8.480   2.845   3.558
22409SOL    HW279287   8.644   2.840   3.561
22410SOL     OW79288   8.464   2.113   2.432
22410SOL    HW179289   8.421   2.199   2.460
22410SOL    HW279290   8.450   2.044   2.504
22411SOL     OW79291   8.604   3.604   3.464
22411SOL    HW179292   8.520   3.612   3.410
22411SOL    HW279293   8.640   3.696   3.483
22412SOL     OW79294   8.068   1.975   2.713
22412SOL    HW179295   8.005   1.916   2.662
22412SOL    HW279296   8.141   1.920   2.753
22413SOL     OW79297   7.707   3.659   3.124
22413SOL    HW179298   7.691   3.602   3.043
22413SOL    HW279299   7.622   3.667   3.176
22414SOL     OW79300   8.356   3.093   2.700
22414SOL    HW179301   8.399   3.157   2.636
22414SOL    HW279302   8.426   3.039   2.746
22415SOL     OW79303   8.077   2.798   2.813
22415SOL    HW179304   8.095   2.723   2.750
22415SOL    HW279305   8.034   2.762   2.896
22416SOL     OW79306   7.441   2.869   2.972
22416SOL    HW179307   7.536   2.876   3.001
22416SOL    HW279308   7.429   2.790   2.913
22417SOL     OW79309   7.674   1.916   2.246
22417SOL    HW179310   7.734   1.988   2.280
22417SOL    HW279311   7.595   1.906   2.306
22418SOL     OW79312   8.077   2.486   3.532
22418SOL    HW179313   8.018   2.525   3.461
22418SOL    HW279314   8.170   2.478   3.498
22419SOL     OW79315   7.457   2.924   2.093
22419SOL    HW179316   7.480   2.829   2.073
22419SOL    HW279317   7.501   2.984   2.026
22420SOL     OW79318   9.123   2.116   2.703
22420SOL    HW179319   9.102   2.125   2.800
22420SOL    HW279320   9.222   2.113   2.689
22421SOL     OW79321   8.190   3.028   2.926
22421SOL    HW179322   8.149   2.946   2.885
22421SOL    HW279323   8.243   3.077   2.857
22422SOL     OW79324   8.594   2.467   2.124
22422SOL    HW179325   8.631   2.546   2.174
22422SOL    HW279326   8.560   2.498   2.035
22423SOL     OW79327   8.956   3.299   3.531
22423SOL    HW179328   8.917   3.217   3.574
22423SOL    HW279329   8.889   3.341   3.471
22424SOL     OW79330   7.628   2.707   3.235
22424SOL    HW179331   7.637   2.616   3.276
22424SOL    HW279332   7.598   2.772   3.305
22425SOL     OW79333   8.229   3.353   1.858
22425SOL    HW179334   8.181   3.401   1.931
22425SOL    HW279335   8.290   3.284   1.897
22426SOL     OW79336   8.022   3.609   2.863
22426SOL    HW179337   8.023   3.579   2.767
22426SOL    HW279338   7.943   3.569   2.909
22427SOL     OW79339   8.133   2.985   2.587
22427SOL    HW179340   8.210   3.035   2.628
22427SOL    HW279341   8.099   2.918   2.653
22428SOL     OW79342   8.305   3.369   2.316
22428SOL    HW179343   8.324   3.378   2.218
22428SOL    HW279344   8.243   3.292   2.331
22429SOL     OW79345   7.520   2.678   2.782
22429SOL    HW179346   7.600   2.626   2.754
22429SOL    HW279347   7.481   2.725   2.703
22430SOL     OW79348   7.422   2.759   3.666
22430SOL    HW179349   7.322   2.768   3.661
22430SOL    HW279350   7.447   2.709   3.748
22431SOL     OW79351   8.367   3.641   3.330
22431SOL    HW179352   8.331   3.564   3.383
22431SOL    HW279353   8.292   3.685   3.280
22432SOL     OW79354   8.517   2.918   2.842
22432SOL    HW179355   8.532   2.931   2.940
22432SOL    HW279356   8.466   2.833   2.826
22433SOL     OW79357   7.918   2.238   3.647
22433SOL    HW179358   7.980   2.223   3.570
22433SOL    HW279359   7.920   2.335   3.673
22434SOL     OW79360   7.913   2.780   2.265
22434SOL    HW179361   7.874   2.865   2.230
22434SOL    HW279362   7.839   2.721   2.299
22435SOL     OW79363   8.946   2.779   2.853
22435SOL    HW179364   8.996   2.855   2.810
22435SOL    HW279365   8.912   2.809   2.942
22436SOL     OW79366   8.746   2.130   3.243
22436SOL    HW179367   8.815   2.097   3.308
22436SOL    HW279368   8.683   2.055   3.221
22437SOL     OW79369   7.447   1.891   2.399
22437SOL    HW179370   7.390   1.818   2.360
22437SOL    HW279371   7.412   1.980   2.371
22438SOL     OW79372   8.573   2.039   3.530
22438SOL    HW179373   8.583   2.067   3.625
22438SOL    HW279374   8.513   2.104   3.483
22439SOL     OW79375   7.834   3.428   3.477
22439SOL    HW179376   7.777   3.492   3.528
22439SOL    HW279377   7.876   3.475   3.400
22440SOL     OW79378   9.183   3.301   3.375
22440SOL    HW179379   9.227   3.388   3.397
22440SOL    HW279380   9.100   3.291   3.429
22441SOL     OW79381   8.407   2.328   2.920
22441SOL    HW179382   8.483   2.378   2.961
22441SOL    HW279383   8.413   2.231   2.943
22442SOL     OW79384   7.833   3.343   2.517
22442SOL    HW179385   7.841   3.246   2.539
22442SOL    HW279386   7.750   3.380   2.558
22443SOL     OW79387   8.463   3.434   3.096
22443SOL    HW179388   8.393   3.472   3.036
22443SOL    HW279389   8.552   3.469   3.070
22444SOL     OW79390   7.673   3.608   3.624
22444SOL    HW179391   7.706   3.702   3.620
22444SOL    HW279392   7.672   3.577   3.719
22445SOL     OW79393   7.516   3.124   3.514
22445SOL    HW179394   7.503   3.030   3.481
22445SOL    HW279395   7.446   3.183   3.474
22446SOL     OW79396   7.650   3.498   2.909
22446SOL    HW179397   7.628   3.401   2.905
22446SOL    HW279398   7.681   3.529   2.819
22447SOL     OW79399   8.427   1.967   2.662
22447SOL    HW179400   8.506   2.004   2.711
22447SOL    HW279401   8.373   1.910   2.724
22448SOL     OW79402   8.460   3.067   2.235
22448SOL    HW179403   8.550   3.087   2.273
22448SOL    HW279404   8.414   2.998   2.291
22449SOL     OW79405   8.994   2.330   2.585
22449SOL    HW179406   9.019   2.409   2.640
22449SOL    HW279407   9.039   2.248   2.623
22450SOL     OW79408   8.156   3.024   2.105
22450SOL    HW179409   8.227   3.083   2.064
22450SOL    HW279410   8.163   2.932   2.066
22451SOL     OW79411   8.161   1.982   1.952
22451SOL    HW179412   8.248   1.932   1.949
22451SOL    HW279413   8.174   2.068   2.002
22452SOL     OW79414   7.884   2.377   2.582
22452SOL    HW179415   7.960   2.312   2.585
22452SOL    HW279416   7.861   2.398   2.487
22453SOL     OW79417   7.946   2.878   3.284
22453SOL    HW179418   8.036   2.851   3.319
22453SOL    HW279419   7.956   2.959   3.227
22454SOL     OW79420   9.154   2.958   3.184
22454SOL    HW179421   9.151   3.054   3.156
22454SOL    HW279422   9.204   2.905   3.116
22455SOL     OW79423   7.573   3.115   1.924
22455SOL    HW179424   7.540   3.118   1.830
22455SOL    HW279425   7.668   3.144   1.927
22456SOL     OW79426   8.084   3.462   2.059
22456SOL    HW179427   8.034   3.546   2.035
22456SOL    HW279428   8.039   3.417   2.136
22457SOL     OW79429   8.718   2.964   3.323
22457SOL    HW179430   8.656   2.933   3.395
22457SOL    HW279431   8.698   3.059   3.300
22458SOL     OW79432   7.932   3.552   3.249
22458SOL    HW179433   8.004   3.621   3.244
22458SOL    HW279434   7.850   3.585   3.204
22459SOL     OW79435   7.564   2.420   3.615
22459SOL    HW179436   7.560   2.321   3.602
22459SOL    HW279437   7.631   2.442   3.686
22460SOL     OW79438   9.074   3.375   2.875
22460SOL    HW179439   9.097   3.468   2.904
22460SOL    HW279440   9.097   3.310   2.948
22461SOL     OW79441   7.395   2.808   2.563
22461SOL    HW179442   7.408   2.873   2.488
22461SOL    HW279443   7.301   2.774   2.561
22462SOL     OW79444   7.904   2.594   3.353
22462SOL    HW179445   7.817   2.545   3.347
22462SOL    HW279446   7.894   2.686   3.315
22463SOL     OW79447   9.050   2.993   2.709
22463SOL    HW179448   9.060   3.089   2.683
22463SOL    HW279449   9.010   2.942   2.633
22464SOL     OW79450   8.133   2.382   2.854
22464SOL    HW179451   8.228   2.365   2.879
22464SOL    HW279452   8.094   2.450   2.917
22465SOL     OW79453   8.021   3.105   3.134
22465SOL    HW179454   7.927   3.126   3.105
22465SOL    HW279455   8.077   3.087   3.053
22466SOL     OW79456   7.541   2.550   3.028
22466SOL    HW179457   7.562   2.618   3.097
22466SOL    HW279458   7.532   2.594   2.938
22467SOL     OW79459   7.719   3.213   3.350
22467SOL    HW179460   7.762   3.294   3.391
22467SOL    HW279461   7.645   3.182   3.409
22468SOL     OW79462   9.037   3.546   3.635
22468SOL    HW179463   9.009   3.452   3.615
22468SOL    HW279464   9.006   3.607   3.562
22469SOL     OW79465   8.720   3.126   2.329
22469SOL    HW179466   8.808   3.124   2.375
22469SOL    HW279467   8.733   3.105   2.232
22470SOL     OW79468   8.030   2.229   2.309
22470SOL    HW179469   7.931   2.217   2.305
22470SOL    HW279470   8.061   2.217   2.403
22471SOL     OW79471   9.012   1.890   2.588
22471SOL    HW179472   8.998   1.900   2.489
22471SOL    HW279473   9.054   1.973   2.623
22472SOL     OW79474   8.531   2.581   3.269
22472SOL    HW179475   8.631   2.585   3.257
22472SOL    HW279476   8.486   2.633   3.197
22473SOL     OW79477   8.125   2.583   2.658
22473SOL    HW179478   8.117   2.502   2.715
22473SOL    HW279479   8.125   2.557   2.561
22474SOL     OW79480   8.799   3.343   2.861
22474SOL    HW179481   8.755   3.337   2.772
22474SOL    HW279482   8.897   3.362   2.848
22475SOL     OW79483   8.719   2.303   2.572
22475SOL    HW179484   8.701   2.296   2.474
22475SOL    HW279485   8.817   2.317   2.587
22476SOL     OW79486   8.465   3.314   4.439
22476SOL    HW179487   8.561   3.343   4.439
22476SOL    HW279488   8.425   3.332   4.349
22477SOL     OW79489   8.968   3.139   4.252
22477SOL    HW179490   8.981   3.202   4.329
22477SOL    HW279491   9.056   3.096   4.229
22478SOL     OW79492   9.002   2.509   5.066
22478SOL    HW179493   8.934   2.459   5.120
22478SOL    HW279494   9.057   2.567   5.127
22479SOL     OW79495   7.735   2.050   3.693
22479SOL    HW179496   7.656   2.077   3.638
22479SOL    HW279497   7.810   2.113   3.675
22480SOL     OW79498   8.731   3.399   4.487
22480SOL    HW179499   8.742   3.494   4.514
22480SOL    HW279500   8.821   3.359   4.467
22481SOL     OW79501   8.565   1.948   5.015
22481SOL    HW179502   8.487   1.897   5.052
22481SOL    HW279503   8.612   1.892   4.947
22482SOL     OW79504   8.327   2.709   5.455
22482SOL    HW179505   8.332   2.641   5.381
22482SOL    HW279506   8.232   2.740   5.465
22483SOL     OW79507   7.946   3.327   4.108
22483SOL    HW179508   7.904   3.356   4.194
22483SOL    HW279509   8.019   3.261   4.126
22484SOL     OW79510   7.916   1.881   3.830
22484SOL    HW179511   8.009   1.918   3.832
22484SOL    HW279512   7.857   1.943   3.779
22485SOL     OW79513   8.962   2.899   5.236
22485SOL    HW179514   8.867   2.919   5.211
22485SOL    HW279515   9.023   2.929   5.163
22486SOL     OW79516   8.812   2.907   4.912
22486SOL    HW179517   8.766   2.909   5.001
22486SOL    HW279518   8.856   2.995   4.895
22487SOL     OW79519   8.377   3.226   5.097
22487SOL    HW179520   8.291   3.275   5.111
22487SOL    HW279521   8.359   3.139   5.053
22488SOL     OW79522   7.861   3.075   4.383
22488SOL    HW179523   7.811   3.024   4.453
22488SOL    HW279524   7.957   3.048   4.385
22489SOL     OW79525   8.095   2.466   4.264
22489SOL    HW179526   8.126   2.543   4.208
22489SOL    HW279527   8.069   2.390   4.205
22490SOL     OW79528   8.621   2.385   5.420
22490SOL    HW179529   8.714   2.371   5.455
22490SOL    HW279530   8.573   2.297   5.418
22491SOL     OW79531   7.816   3.234   3.865
22491SOL    HW179532   7.869   3.245   3.782
22491SOL    HW279533   7.861   3.281   3.940
22492SOL     OW79534   7.944   2.153   4.699
22492SOL    HW179535   8.001   2.235   4.693
22492SOL    HW279536   7.994   2.076   4.659
22493SOL     OW79537   7.720   2.593   4.189
22493SOL    HW179538   7.758   2.623   4.277
22493SOL    HW279539   7.621   2.580   4.199
22494SOL     OW79540   8.169   3.557   4.308
22494SOL    HW179541   8.230   3.490   4.266
22494SOL    HW279542   8.154   3.632   4.244
22495SOL     OW79543   9.150   3.453   4.080
22495SOL    HW179544   9.242   3.421   4.057
22495SOL    HW279545   9.118   3.516   4.010
22496SOL     OW79546   9.048   2.172   4.798
22496SOL    HW179547   9.085   2.264   4.813
22496SOL    HW279548   8.948   2.176   4.799
22497SOL     OW79549   8.464   2.212   4.023
22497SOL    HW179550   8.512   2.299   4.032
22497SOL    HW279551   8.471   2.161   4.108
22498SOL     OW79552   7.538   2.838   5.264
22498SOL    HW179553   7.631   2.874   5.270
22498SOL    HW279554   7.507   2.809   5.354
22499SOL     OW79555   7.890   2.526   3.725
22499SOL    HW179556   7.868   2.623   3.731
22499SOL    HW279557   7.964   2.512   3.659
22500SOL     OW79558   8.043   3.471   4.527
22500SOL    HW179559   8.098   3.506   4.451
22500SOL    HW279560   7.964   3.422   4.491
22501SOL     OW79561   8.396   2.510   5.274
22501SOL    HW179562   8.456   2.450   5.326
22501SOL    HW279563   8.449   2.553   5.201
22502SOL     OW79564   8.996   3.297   4.485
22502SOL    HW179565   9.007   3.318   4.583
22502SOL    HW279566   9.054   3.358   4.431
22503SOL     OW79567   7.690   3.110   4.166
22503SOL    HW179568   7.751   3.101   4.244
22503SOL    HW279569   7.723   3.054   4.090
22504SOL     OW79570   8.590   2.145   3.787
22504SOL    HW179571   8.661   2.079   3.810
22504SOL    HW279572   8.537   2.168   3.869
22505SOL     OW79573   7.760   2.375   4.933
22505SOL    HW179574   7.752   2.276   4.921
22505SOL    HW279575   7.676   2.419   4.899
22506SOL     OW79576   8.785   2.635   4.958
22506SOL    HW179577   8.802   2.732   4.938
22506SOL    HW279578   8.868   2.593   4.995
22507SOL     OW79579   7.773   2.138   4.151
22507SOL    HW179580   7.721   2.176   4.227
22507SOL    HW279581   7.723   2.155   4.065
22508SOL     OW79582   8.918   3.587   5.011
22508SOL    HW179583   8.838   3.592   4.951
22508SOL    HW279584   9.001   3.583   4.956
22509SOL     OW79585   9.130   2.425   4.844
22509SOL    HW179586   9.222   2.463   4.846
22509SOL    HW279587   9.080   2.454   4.926
22510SOL     OW79588   9.167   3.581   4.864
22510SOL    HW179589   9.202   3.611   4.952
22510SOL    HW279590   9.242   3.573   4.799
22511SOL     OW79591   8.319   2.313   4.338
22511SOL    HW179592   8.384   2.355   4.401
22511SOL    HW279593   8.248   2.379   4.315
22512SOL     OW79594   8.636   2.840   3.848
22512SOL    HW179595   8.650   2.784   3.930
22512SOL    HW279596   8.572   2.794   3.787
22513SOL     OW79597   8.474   2.149   5.423
22513SOL    HW179598   8.489   2.151   5.522
22513SOL    HW279599   8.399   2.085   5.402
22514SOL     OW79600   9.115   2.540   4.068
22514SOL    HW179601   9.072   2.450   4.071
22514SOL    HW279602   9.175   2.551   4.146
22515SOL     OW79603   8.389   3.617   3.828
22515SOL    HW179604   8.425   3.566   3.750
22515SOL    HW279605   8.410   3.568   3.912
22516SOL     OW79606   8.256   1.945   5.430
22516SOL    HW179607   8.247   1.850   5.399
22516SOL    HW279608   8.252   1.948   5.530
22517SOL     OW79609   9.059   2.533   4.603
22517SOL    HW179610   9.015   2.622   4.614
22517SOL    HW279611   9.075   2.492   4.692
22518SOL     OW79612   8.475   3.161   5.365
22518SOL    HW179613   8.495   3.063   5.373
22518SOL    HW279614   8.431   3.179   5.278
22519SOL     OW79615   8.120   3.010   5.404
22519SOL    HW179616   8.069   3.095   5.419
22519SOL    HW279617   8.107   2.949   5.483
22520SOL     OW79618   8.782   1.829   4.566
22520SOL    HW179619   8.735   1.917   4.573
22520SOL    HW279620   8.868   1.841   4.516
22521SOL     OW79621   9.115   2.082   5.471
22521SOL    HW179622   9.074   2.122   5.554
22521SOL    HW279623   9.112   1.982   5.477
22522SOL     OW79624   7.459   2.570   4.273
22522SOL    HW179625   7.465   2.502   4.346
22522SOL    HW279626   7.434   2.658   4.312
22523SOL     OW79627   7.723   2.068   4.530
22523SOL    HW179628   7.794   2.105   4.589
22523SOL    HW279629   7.745   1.973   4.506
22524SOL     OW79630   7.772   2.094   4.908
22524SOL    HW179631   7.753   1.996   4.912
22524SOL    HW279632   7.835   2.113   4.832
22525SOL     OW79633   8.505   2.642   4.644
22525SOL    HW179634   8.569   2.706   4.601
22525SOL    HW279635   8.488   2.566   4.581
22526SOL     OW79636   7.588   3.361   4.080
22526SOL    HW179637   7.621   3.269   4.100
22526SOL    HW279638   7.638   3.399   4.002
22527SOL     OW79639   8.862   3.185   4.922
22527SOL    HW179640   8.825   3.220   4.836
22527SOL    HW279641   8.794   3.196   4.995
22528SOL     OW79642   7.587   3.454   4.343
22528SOL    HW179643   7.492   3.466   4.371
22528SOL    HW279644   7.589   3.430   4.245
22529SOL     OW79645   9.128   3.229   4.977
22529SOL    HW179646   9.150   3.259   5.070
22529SOL    HW279647   9.029   3.215   4.969
22530SOL     OW79648   7.870   2.800   3.733
22530SOL    HW179649   7.843   2.846   3.648
22530SOL    HW279650   7.848   2.859   3.811
22531SOL     OW79651   8.323   2.984   4.971
22531SOL    HW179652   8.360   2.895   4.945
22531SOL    HW279653   8.264   3.017   4.898
22532SOL     OW79654   7.488   2.637   3.900
22532SOL    HW179655   7.565   2.572   3.906
22532SOL    HW279656   7.411   2.601   3.953
22533SOL     OW79657   8.962   2.768   4.096
22533SOL    HW179658   9.016   2.684   4.087
22533SOL    HW279659   8.993   2.835   4.029
22534SOL     OW79660   8.273   3.683   4.708
22534SOL    HW179661   8.309   3.595   4.676
22534SOL    HW279662   8.196   3.667   4.769
22535SOL     OW79663   8.141   2.755   3.776
22535SOL    HW179664   8.166   2.663   3.807
22535SOL    HW279665   8.042   2.757   3.757
22536SOL     OW79666   8.759   2.265   4.131
22536SOL    HW179667   8.712   2.335   4.076
22536SOL    HW279668   8.857   2.280   4.127
22537SOL     OW79669   7.731   2.486   5.191
22537SOL    HW179670   7.731   2.424   5.113
22537SOL    HW279671   7.666   2.454   5.260
22538SOL     OW79672   7.607   2.139   5.128
22538SOL    HW179673   7.674   2.125   5.055
22538SOL    HW279674   7.515   2.125   5.093
22539SOL     OW79675   8.375   2.727   4.872
22539SOL    HW179676   8.420   2.703   4.786
22539SOL    HW279677   8.289   2.678   4.879
22540SOL     OW79678   9.032   2.282   4.147
22540SOL    HW179679   9.124   2.243   4.136
22540SOL    HW279680   9.016   2.304   4.243
22541SOL     OW79681   8.308   3.420   4.635
22541SOL    HW179682   8.366   3.384   4.561
22541SOL    HW279683   8.213   3.420   4.605
22542SOL     OW79684   8.212   2.230   3.927
22542SOL    HW179685   8.144   2.225   4.001
22542SOL    HW279686   8.304   2.224   3.966
22543SOL     OW79687   8.355   3.140   3.839
22543SOL    HW179688   8.406   3.118   3.922
22543SOL    HW279689   8.418   3.143   3.761
22544SOL     OW79690   9.144   3.474   4.349
22544SOL    HW179691   9.108   3.561   4.381
22544SOL    HW279692   9.139   3.470   4.250
22545SOL     OW79693   8.572   2.768   4.298
22545SOL    HW179694   8.602   2.792   4.390
22545SOL    HW279695   8.480   2.803   4.282
22546SOL     OW79696   8.219   3.498   5.343
22546SOL    HW179697   8.185   3.432   5.276
22546SOL    HW279698   8.225   3.453   5.433
22547SOL     OW79699   8.690   2.819   4.544
22547SOL    HW179700   8.780   2.795   4.583
22547SOL    HW279701   8.652   2.897   4.594
22548SOL     OW79702   7.717   2.936   4.571
22548SOL    HW179703   7.624   2.973   4.562
22548SOL    HW279704   7.736   2.918   4.668
22549SOL     OW79705   8.317   2.857   4.235
22549SOL    HW179706   8.273   2.786   4.180
22549SOL    HW279707   8.252   2.895   4.300
22550SOL     OW79708   8.657   3.220   5.102
22550SOL    HW179709   8.699   3.299   5.148
22550SOL    HW279710   8.558   3.230   5.102
22551SOL     OW79711   7.441   2.200   4.118
22551SOL    HW179712   7.502   2.205   4.039
22551SOL    HW279713   7.494   2.210   4.202
22552SOL     OW79714   9.069   3.642   3.896
22552SOL    HW179715   9.155   3.692   3.887
22552SOL    HW279716   9.043   3.604   3.807
22553SOL     OW79717   8.162   2.591   5.146
22553SOL    HW179718   8.172   2.690   5.158
22553SOL    HW279719   8.242   2.544   5.183
22554SOL     OW79720   7.443   3.661   5.100
22554SOL    HW179721   7.392   3.747   5.094
22554SOL    HW279722   7.437   3.625   5.193
22555SOL     OW79723   8.177   2.662   4.094
22555SOL    HW179724   8.084   2.693   4.075
22555SOL    HW279725   8.213   2.614   4.014
22556SOL     OW79726   7.716   2.419   4.613
22556SOL    HW179727   7.777   2.387   4.540
22556SOL    HW279728   7.760   2.403   4.702
22557SOL     OW79729   7.688   3.588   3.903
22557SOL    HW179730   7.779   3.620   3.879
22557SOL    HW279731   7.664   3.620   3.995
22558SOL     OW79732   8.696   3.591   4.844
22558SOL    HW179733   8.730   3.608   4.751
22558SOL    HW279734   8.622   3.523   4.840
22559SOL     OW79735   7.455   3.038   4.631
22559SOL    HW179736   7.366   3.037   4.585
22559SOL    HW279737   7.456   2.970   4.704
22560SOL     OW79738   8.120   1.919   4.118
22560SOL    HW179739   8.138   1.910   4.020
22560SOL    HW279740   8.087   2.012   4.137
22561SOL     OW79741   7.425   3.010   4.207
22561SOL    HW179742   7.508   3.064   4.218
22561SOL    HW279743   7.424   2.969   4.116
22562SOL     OW79744   8.974   2.155   5.245
22562SOL    HW179745   8.928   2.243   5.246
22562SOL    HW279746   9.024   2.142   5.330
22563SOL     OW79747   8.675   2.081   4.597
22563SOL    HW179748   8.690   2.145   4.522
22563SOL    HW279749   8.710   2.120   4.682
22564SOL     OW79750   8.776   1.962   3.881
22564SOL    HW179751   8.776   1.867   3.851
22564SOL    HW279752   8.746   1.967   3.977
22565SOL     OW79753   8.967   1.874   5.260
22565SOL    HW179754   8.945   1.833   5.171
22565SOL    HW279755   8.959   1.973   5.255
22566SOL     OW79756   8.101   2.150   4.401
22566SOL    HW179757   8.097   2.068   4.458
22566SOL    HW279758   8.194   2.188   4.404
22567SOL     OW79759   8.641   2.463   4.805
22567SOL    HW179760   8.595   2.525   4.741
22567SOL    HW279761   8.697   2.515   4.868
22568SOL     OW79762   8.984   1.892   4.140
22568SOL    HW179763   9.007   1.847   4.053
22568SOL    HW279764   8.889   1.921   4.138
22569SOL     OW79765   7.991   3.259   5.473
22569SOL    HW179766   7.939   3.319   5.413
22569SOL    HW279767   8.068   3.310   5.513
22570SOL     OW79768   7.786   2.951   5.260
22570SOL    HW179769   7.851   2.919   5.191
22570SOL    HW279770   7.770   3.049   5.247
22571SOL     OW79771   7.511   3.238   4.812
22571SOL    HW179772   7.494   3.175   4.736
22571SOL    HW279773   7.431   3.240   4.872
22572SOL     OW79774   8.499   2.397   4.520
22572SOL    HW179775   8.585   2.358   4.486
22572SOL    HW279776   8.470   2.349   4.603
22573SOL     OW79777   9.116   2.474   5.420
22573SOL    HW179778   9.113   2.549   5.354
22573SOL    HW279779   9.211   2.454   5.444
22574SOL     OW79780   8.773   2.220   4.814
22574SOL    HW179781   8.733   2.310   4.802
22574SOL    HW279782   8.760   2.189   4.908
22575SOL     OW79783   8.884   2.344   5.496
22575SOL    HW179784   8.963   2.395   5.464
22575SOL    HW279785   8.911   2.284   5.571
22576SOL     OW79786   8.699   2.693   4.074
22576SOL    HW179787   8.649   2.719   4.156
22576SOL    HW279788   8.795   2.720   4.083
22577SOL     OW79789   8.915   2.840   4.357
22577SOL    HW179790   8.925   2.823   4.259
22577SOL    HW279791   8.818   2.832   4.382
22578SOL     OW79792   9.129   2.679   5.234
22578SOL    HW179793   9.063   2.754   5.233
22578SOL    HW279794   9.222   2.717   5.238
22579SOL     OW79795   8.987   2.150   3.869
22579SOL    HW179796   9.006   2.179   3.963
22579SOL    HW279797   8.914   2.081   3.869
22580SOL     OW79798   8.120   3.352   5.122
22580SOL    HW179799   8.058   3.430   5.112
22580SOL    HW279800   8.086   3.275   5.069
22581SOL     OW79801   7.598   2.119   5.399
22581SOL    HW179802   7.604   2.124   5.299
22581SOL    HW279803   7.502   2.111   5.427
22582SOL     OW79804   7.439   3.547   5.351
22582SOL    HW179805   7.524   3.568   5.399
22582SOL    HW279806   7.362   3.553   5.415
22583SOL     OW79807   7.587   2.210   4.346
22583SOL    HW179808   7.543   2.286   4.393
22583SOL    HW279809   7.639   2.155   4.411
22584SOL     OW79810   8.784   3.436   5.207
22584SOL    HW179811   8.720   3.497   5.254
22584SOL    HW279812   8.835   3.488   5.139
22585SOL     OW79813   7.710   2.461   3.927
22585SOL    HW179814   7.785   2.483   3.864
22585SOL    HW279815   7.730   2.498   4.017
22586SOL     OW79816   9.160   2.092   5.046
22586SOL    HW179817   9.092   2.119   5.115
22586SOL    HW279818   9.124   2.111   4.955
22587SOL     OW79819   7.763   3.659   4.409
22587SOL    HW179820   7.693   3.593   4.383
22587SOL    HW279821   7.844   3.647   4.351
22588SOL     OW79822   7.744   3.157   4.939
22588SOL    HW179823   7.735   3.178   5.036
22588SOL    HW279824   7.664   3.192   4.890
22589SOL     OW79825   8.611   3.361   5.497
22589SOL    HW179826   8.563   3.284   5.453
22589SOL    HW279827   8.601   3.443   5.441
22590SOL     OW79828   8.140   3.140   4.168
22590SOL    HW179829   8.152   3.080   4.090
22590SOL    HW279830   8.142   3.087   4.253
22591SOL     OW79831   7.790   2.691   4.441
22591SOL    HW179832   7.771   2.781   4.480
22591SOL    HW279833   7.873   2.653   4.482
22592SOL     OW79834   7.633   2.194   3.917
22592SOL    HW179835   7.674   2.145   3.840
22592SOL    HW279836   7.658   2.290   3.913
22593SOL     OW79837   7.472   2.408   4.492
22593SOL    HW179838   7.396   2.450   4.541
22593SOL    HW279839   7.555   2.415   4.547
22594SOL     OW79840   7.874   2.982   3.953
22594SOL    HW179841   7.973   2.986   3.955
22594SOL    HW279842   7.837   3.068   3.917
22595SOL     OW79843   8.503   2.526   3.746
22595SOL    HW179844   8.462   2.595   3.687
22595SOL    HW279845   8.574   2.477   3.695
22596SOL     OW79846   8.250   2.512   3.871
22596SOL    HW179847   8.342   2.515   3.830
22596SOL    HW279848   8.220   2.417   3.878
22597SOL     OW79849   8.717   1.997   4.145
22597SOL    HW179850   8.633   1.981   4.196
22597SOL    HW279851   8.736   2.095   4.142
22598SOL     OW79852   8.803   2.380   5.195
22598SOL    HW179853   8.741   2.412   5.266
22598SOL    HW279854   8.759   2.308   5.142
22599SOL     OW79855   7.473   1.921   3.876
22599SOL    HW179856   7.548   1.857   3.894
22599SOL    HW279857   7.504   2.015   3.893
22600SOL     OW79858   7.757   2.896   4.841
22600SOL    HW179859   7.771   2.830   4.915
22600SOL    HW279860   7.761   2.989   4.878
22601SOL     OW79861   9.066   2.919   3.894
22601SOL    HW179862   9.164   2.933   3.896
22601SOL    HW279863   9.035   2.911   3.799
22602SOL     OW79864   8.023   2.489   4.922
22602SOL    HW179865   8.061   2.529   5.006
22602SOL    HW279866   7.929   2.459   4.939
22603SOL     OW79867   8.201   2.859   5.192
22603SOL    HW179868   8.260   2.910   5.129
22603SOL    HW279869   8.179   2.916   5.271
22604SOL     OW79870   8.528   2.884   5.364
22604SOL    HW179871   8.446   2.834   5.392
22604SOL    HW279872   8.610   2.835   5.395
22605SOL     OW79873   8.465   2.089   4.277
22605SOL    HW179874   8.413   2.173   4.292
22605SOL    HW279875   8.452   2.028   4.355
22606SOL     OW79876   8.596   3.591   5.334
22606SOL    HW179877   8.520   3.618   5.275
22606SOL    HW279878   8.618   3.667   5.395
22607SOL     OW79879   8.070   1.943   4.574
22607SOL    HW179880   8.009   1.865   4.559
22607SOL    HW279881   8.157   1.909   4.611
22608SOL     OW79882   7.683   3.624   4.969
22608SOL    HW179883   7.657   3.577   4.884
22608SOL    HW279884   7.602   3.634   5.027
22609SOL     OW79885   8.363   3.088   4.556
22609SOL    HW179886   8.398   3.169   4.508
22609SOL    HW279887   8.438   3.045   4.607
22610SOL     OW79888   8.033   2.838   4.630
22610SOL    HW179889   8.050   2.745   4.596
22610SOL    HW279890   7.956   2.836   4.694
22611SOL     OW79891   7.475   2.850   4.825
22611SOL    HW179892   7.571   2.856   4.853
22611SOL    HW279893   7.465   2.777   4.757
22612SOL     OW79894   7.656   1.874   4.160
22612SOL    HW179895   7.710   1.957   4.177
22612SOL    HW279896   7.562   1.889   4.188
22613SOL     OW79897   7.469   2.913   3.951
22613SOL    HW179898   7.492   2.818   3.931
22613SOL    HW279899   7.518   2.973   3.888
22614SOL     OW79900   9.127   2.115   4.538
22614SOL    HW179901   9.102   2.126   4.635
22614SOL    HW279902   9.226   2.122   4.529
22615SOL     OW79903   8.169   3.049   4.749
22615SOL    HW179904   8.120   2.971   4.711
22615SOL    HW279905   8.237   3.081   4.684
22616SOL     OW79906   8.609   2.450   3.991
22616SOL    HW179907   8.641   2.535   4.033
22616SOL    HW279908   8.569   2.470   3.901
22617SOL     OW79909   8.940   3.297   5.389
22617SOL    HW179910   8.897   3.221   5.437
22617SOL    HW279911   8.874   3.339   5.326
22618SOL     OW79912   7.654   2.708   5.044
22618SOL    HW179913   7.697   2.634   5.096
22618SOL    HW279914   7.601   2.766   5.106
22619SOL     OW79915   8.192   3.327   3.722
22619SOL    HW179916   8.147   3.385   3.790
22619SOL    HW279917   8.254   3.264   3.768
22620SOL     OW79918   8.037   3.565   4.795
22620SOL    HW179919   8.027   3.525   4.704
22620SOL    HW279920   7.980   3.516   4.859
22621SOL     OW79921   8.143   2.988   4.417
22621SOL    HW179922   8.223   3.032   4.459
22621SOL    HW279923   8.100   2.928   4.484
22622SOL     OW79924   8.328   3.352   4.201
22622SOL    HW179925   8.393   3.367   4.127
22622SOL    HW279926   8.269   3.275   4.180
22623SOL     OW79927   7.531   2.682   4.606
22623SOL    HW179928   7.615   2.650   4.561
22623SOL    HW279929   7.472   2.725   4.538
22624SOL     OW79930   7.428   2.763   5.496
22624SOL    HW179931   7.328   2.769   5.489
22624SOL    HW279932   7.452   2.715   5.580
22625SOL     OW79933   8.369   3.659   5.179
22625SOL    HW179934   8.324   3.593   5.239
22625SOL    HW279935   8.299   3.717   5.136
22626SOL     OW79936   8.586   3.008   4.709
22626SOL    HW179937   8.625   3.101   4.709
22626SOL    HW279938   8.604   2.965   4.797
22627SOL     OW79939   7.919   2.729   4.057
22627SOL    HW179940   7.888   2.819   4.026
22627SOL    HW279941   7.843   2.682   4.103
22628SOL     OW79942   8.937   2.794   4.676
22628SOL    HW179943   8.980   2.873   4.633
22628SOL    HW279944   8.905   2.819   4.768
22629SOL     OW79945   8.737   2.144   5.073
22629SOL    HW179946   8.807   2.109   5.136
22629SOL    HW279947   8.667   2.074   5.059
22630SOL     OW79948   7.395   1.943   4.205
22630SOL    HW179949   7.301   1.913   4.188
22630SOL    HW279950   7.406   2.038   4.174
22631SOL     OW79951   8.683   1.964   5.444
22631SOL    HW179952   8.715   1.966   5.539
22631SOL    HW279953   8.621   2.042   5.428
22632SOL     OW79954   7.836   3.436   5.325
22632SOL    HW179955   7.781   3.499   5.380
22632SOL    HW279956   7.871   3.485   5.245
22633SOL     OW79957   9.178   3.289   5.245
22633SOL    HW179958   9.223   3.376   5.266
22633SOL    HW279959   9.093   3.282   5.297
22634SOL     OW79960   8.408   2.309   4.770
22634SOL    HW179961   8.484   2.363   4.805
22634SOL    HW279962   8.407   2.220   4.816
22635SOL     OW79963   7.841   3.349   4.377
22635SOL    HW179964   7.844   3.249   4.383
22635SOL    HW279965   7.746   3.379   4.374
22636SOL     OW79966   8.487   3.402   4.845
22636SOL    HW179967   8.446   3.370   4.930
22636SOL    HW279968   8.416   3.410   4.775
22637SOL     OW79969   7.684   3.616   5.479
22637SOL    HW179970   7.716   3.710   5.462
22637SOL    HW279971   7.679   3.601   5.578
22638SOL     OW79972   7.498   3.119   5.338
22638SOL    HW179973   7.481   3.027   5.304
22638SOL    HW279974   7.428   3.181   5.302
22639SOL     OW79975   7.576   3.497   4.746
22639SOL    HW179976   7.558   3.401   4.765
22639SOL    HW279977   7.602   3.507   4.649
22640SOL     OW79978   8.427   1.979   4.532
22640SOL    HW179979   8.515   2.013   4.566
22640SOL    HW279980   8.384   1.922   4.601
22641SOL     OW79981   8.451   3.059   4.085
22641SOL    HW179982   8.540   3.077   4.125
22641SOL    HW279983   8.406   2.985   4.136
22642SOL     OW79984   8.998   2.330   4.420
22642SOL    HW179985   9.017   2.411   4.475
22642SOL    HW279986   9.044   2.250   4.459
22643SOL     OW79987   8.148   2.987   3.933
22643SOL    HW179988   8.220   3.047   3.897
22643SOL    HW279989   8.159   2.895   3.894
22644SOL     OW79990   8.178   1.964   3.841
22644SOL    HW179991   8.262   1.909   3.845
22644SOL    HW279992   8.199   2.059   3.861
22645SOL     OW79993   7.893   2.335   4.424
22645SOL    HW179994   7.954   2.255   4.430
22645SOL    HW279995   7.936   2.405   4.367
22646SOL     OW79996   7.968   2.912   5.062
22646SOL    HW179997   8.049   2.877   5.109
22646SOL    HW279998   7.987   3.003   5.025
22647SOL     OW79999   9.134   2.958   5.033
22647SOL    HW180000   9.141   3.055   5.012
22647SOL    HW280001   9.190   2.906   4.968
22648SOL     OW80002   7.597   3.083   3.779
22648SOL    HW180003   7.567   3.102   3.686
22648SOL    HW280004   7.666   3.150   3.806
22649SOL     OW80005   8.043   3.471   3.894
22649SOL    HW180006   7.995   3.557   3.876
22649SOL    HW280007   8.012   3.434   3.982
22650SOL     OW80008   8.702   2.956   5.156
22650SOL    HW180009   8.636   2.919   5.222
22650SOL    HW280010   8.685   3.054   5.144
22651SOL     OW80011   7.927   3.560   5.092
22651SOL    HW180012   7.987   3.640   5.091
22651SOL    HW280013   7.840   3.583   5.047
22652SOL     OW80014   7.581   2.400   5.413
22652SOL    HW180015   7.593   2.300   5.416
22652SOL    HW280016   7.622   2.440   5.495
22653SOL     OW80017   9.047   3.364   4.740
22653SOL    HW180018   9.076   3.456   4.768
22653SOL    HW280019   9.070   3.299   4.812
22654SOL     OW80020   7.382   2.802   4.392
22654SOL    HW180021   7.406   2.880   4.334
22654SOL    HW280022   7.282   2.798   4.401
22655SOL     OW80023   7.967   2.520   5.327
22655SOL    HW180024   7.878   2.513   5.282
22655SOL    HW280025   8.036   2.546   5.260
22656SOL     OW80026   9.020   3.023   4.539
22656SOL    HW180027   9.002   3.121   4.526
22656SOL    HW280028   8.982   2.972   4.461
22657SOL     OW80029   8.131   2.377   4.702
22657SOL    HW180030   8.227   2.354   4.717
22657SOL    HW280031   8.093   2.419   4.785
22658SOL     OW80032   8.019   3.162   4.952
22658SOL    HW180033   7.922   3.170   4.932
22658SOL    HW280034   8.068   3.134   4.869
22659SOL     OW80035   7.550   2.537   4.851
22659SOL    HW180036   7.578   2.606   4.918
22659SOL    HW280037   7.550   2.577   4.759
22660SOL     OW80038   7.720   3.214   5.209
22660SOL    HW180039   7.764   3.294   5.250
22660SOL    HW280040   7.636   3.192   5.258
22661SOL     OW80041   9.027   3.550   5.472
22661SOL    HW180042   8.995   3.457   5.459
22661SOL    HW280043   8.996   3.608   5.397
22662SOL     OW80044   8.712   3.097   4.164
22662SOL    HW180045   8.802   3.109   4.208
22662SOL    HW280046   8.725   3.084   4.066
22663SOL     OW80047   8.038   2.202   4.146
22663SOL    HW180048   7.941   2.182   4.136
22663SOL    HW280049   8.067   2.183   4.239
22664SOL     OW80050   9.006   1.894   4.417
22664SOL    HW180051   8.998   1.907   4.318
22664SOL    HW280052   9.052   1.974   4.457
22665SOL     OW80053   8.532   2.624   5.074
22665SOL    HW180054   8.629   2.625   5.048
22665SOL    HW280055   8.478   2.668   5.003
22666SOL     OW80056   8.050   2.584   4.523
22666SOL    HW180057   8.071   2.511   4.588
22666SOL    HW280058   8.075   2.555   4.431
22667SOL     OW80059   8.685   3.260   4.719
22667SOL    HW180060   8.616   3.311   4.770
22667SOL    HW280061   8.703   3.307   4.632
22668SOL     OW80062   8.726   2.278   4.411
22668SOL    HW180063   8.709   2.268   4.313
22668SOL    HW280064   8.821   2.304   4.427
22669SOL     OW80065   8.458   3.365   6.256
22669SOL    HW180066   8.554   3.380   6.281
22669SOL    HW280067   8.450   3.363   6.156
22670SOL     OW80068   8.976   3.077   6.173
22670SOL    HW180069   8.976   3.159   6.230
22670SOL    HW280070   9.066   3.067   6.130
22671SOL     OW80071   8.946   2.553   6.874
22671SOL    HW180072   8.883   2.493   6.925
22671SOL    HW280073   9.014   2.590   6.937
22672SOL     OW80074   7.782   2.132   5.603
22672SOL    HW180075   7.717   2.120   5.528
22672SOL    HW280076   7.858   2.189   5.573
22673SOL     OW80077   8.718   3.419   6.351
22673SOL    HW180078   8.743   3.515   6.359
22673SOL    HW280079   8.800   3.364   6.333
22674SOL     OW80080   8.521   1.950   6.846
22674SOL    HW180081   8.450   1.886   6.877
22674SOL    HW280082   8.586   1.902   6.787
22675SOL     OW80083   8.322   2.715   7.261
22675SOL    HW180084   8.308   2.626   7.217
22675SOL    HW280085   8.242   2.737   7.317
22676SOL     OW80086   7.908   3.348   5.905
22676SOL    HW180087   7.887   3.346   6.002
22676SOL    HW280088   8.000   3.311   5.889
22677SOL     OW80089   7.966   1.927   5.666
22677SOL    HW180090   8.062   1.956   5.676
22677SOL    HW280091   7.908   2.007   5.653
22678SOL     OW80092   8.938   2.881   7.043
22678SOL    HW180093   8.843   2.902   7.021
22678SOL    HW280094   8.998   2.917   6.972
22679SOL     OW80095   8.314   3.188   6.993
22679SOL    HW180096   8.225   3.233   6.991
22679SOL    HW280097   8.377   3.235   6.931
22680SOL     OW80098   7.858   3.069   6.253
22680SOL    HW180099   7.810   3.020   6.326
22680SOL    HW280100   7.954   3.041   6.251
22681SOL     OW80101   8.093   2.395   6.094
22681SOL    HW180102   8.096   2.452   6.012
22681SOL    HW280103   8.083   2.299   6.068
22682SOL     OW80104   8.681   2.372   7.307
22682SOL    HW180105   8.779   2.380   7.325
22682SOL    HW280106   8.645   2.290   7.351
22683SOL     OW80107   7.819   3.207   5.682
22683SOL    HW180108   7.881   3.218   5.605
22683SOL    HW280109   7.848   3.265   5.758
22684SOL     OW80110   7.932   2.230   6.491
22684SOL    HW180111   8.005   2.295   6.513
22684SOL    HW280112   7.962   2.137   6.512
22685SOL     OW80113   7.717   2.610   6.046
22685SOL    HW180114   7.755   2.642   6.133
22685SOL    HW280115   7.620   2.587   6.059
22686SOL     OW80116   8.175   3.476   6.048
22686SOL    HW180117   8.253   3.415   6.035
22686SOL    HW280118   8.145   3.512   5.960
22687SOL     OW80119   9.176   3.505   5.943
22687SOL    HW180120   9.259   3.453   5.923
22687SOL    HW280121   9.129   3.527   5.858
22688SOL     OW80122   9.009   2.220   6.644
22688SOL    HW180123   9.050   2.311   6.639
22688SOL    HW280124   8.909   2.228   6.643
22689SOL     OW80125   8.363   2.147   5.883
22689SOL    HW180126   8.354   2.240   5.917
22689SOL    HW280127   8.381   2.085   5.960
22690SOL     OW80128   7.548   2.800   7.125
22690SOL    HW180129   7.636   2.849   7.126
22690SOL    HW280130   7.514   2.791   7.219
22691SOL     OW80131   8.038   3.484   6.282
22691SOL    HW180132   8.102   3.497   6.205
22691SOL    HW280133   7.968   3.417   6.257
22692SOL     OW80134   8.303   2.453   7.171
22692SOL    HW180135   8.329   2.372   7.224
22692SOL    HW280136   8.323   2.436   7.074
22693SOL     OW80137   8.980   3.302   6.336
22693SOL    HW180138   9.003   3.308   6.433
22693SOL    HW280139   9.036   3.367   6.284
22694SOL     OW80140   7.685   3.085   6.038
22694SOL    HW180141   7.740   3.077   6.121
22694SOL    HW280142   7.732   3.039   5.963
22695SOL     OW80143   8.543   2.141   5.678
22695SOL    HW180144   8.626   2.090   5.703
22695SOL    HW280145   8.484   2.149   5.758
22696SOL     OW80146   7.782   2.127   6.035
22696SOL    HW180147   7.785   2.187   6.116
22696SOL    HW280148   7.734   2.174   5.961
22697SOL     OW80149   8.985   3.625   6.832
22697SOL    HW180150   8.898   3.628   6.783
22697SOL    HW280151   9.058   3.599   6.769
22698SOL     OW80152   9.103   2.478   6.656
22698SOL    HW180153   9.198   2.505   6.669
22698SOL    HW280154   9.049   2.508   6.734
22699SOL     OW80155   9.206   3.569   6.663
22699SOL    HW180156   9.241   3.623   6.739
22699SOL    HW280157   9.281   3.542   6.603
22700SOL     OW80158   8.361   2.319   6.135
22700SOL    HW180159   8.408   2.371   6.206
22700SOL    HW280160   8.267   2.351   6.127
22701SOL     OW80161   8.594   2.818   5.728
22701SOL    HW180162   8.620   2.785   5.819
22701SOL    HW280163   8.574   2.740   5.669
22702SOL     OW80164   8.366   2.223   7.304
22702SOL    HW180165   8.449   2.207   7.358
22702SOL    HW280166   8.297   2.154   7.328
22703SOL     OW80167   9.114   2.521   5.900
22703SOL    HW180168   9.076   2.429   5.910
22703SOL    HW280169   9.170   2.542   5.980
22704SOL     OW80170   8.214   1.881   7.162
22704SOL    HW180171   8.207   1.785   7.190
22704SOL    HW280172   8.211   1.939   7.243
22705SOL     OW80173   9.045   2.507   6.383
22705SOL    HW180174   8.999   2.587   6.344
22705SOL    HW280175   9.045   2.515   6.483
22706SOL     OW80176   8.389   3.143   7.257
22706SOL    HW180177   8.446   3.061   7.262
22706SOL    HW280178   8.369   3.165   7.162
22707SOL     OW80179   8.781   1.871   6.424
22707SOL    HW180180   8.731   1.958   6.430
22707SOL    HW280181   8.867   1.886   6.376
22708SOL     OW80182   9.170   2.115   7.358
22708SOL    HW180183   9.122   2.138   7.442
22708SOL    HW280184   9.111   2.058   7.300
22709SOL     OW80185   7.456   2.558   6.118
22709SOL    HW180186   7.452   2.492   6.193
22709SOL    HW280187   7.430   2.648   6.152
22710SOL     OW80188   7.713   2.042   6.366
22710SOL    HW180189   7.787   2.085   6.418
22710SOL    HW280190   7.723   1.943   6.369
22711SOL     OW80191   8.386   2.680   6.437
22711SOL    HW180192   8.355   2.731   6.357
22711SOL    HW280193   8.430   2.595   6.407
22712SOL     OW80194   7.601   3.336   5.952
22712SOL    HW180195   7.617   3.242   5.980
22712SOL    HW280196   7.676   3.367   5.894
22713SOL     OW80197   8.893   3.169   6.841
22713SOL    HW180198   8.852   3.139   6.755
22713SOL    HW280199   8.821   3.199   6.904
22714SOL     OW80200   7.615   3.484   6.184
22714SOL    HW180201   7.541   3.552   6.193
22714SOL    HW280202   7.601   3.430   6.102
22715SOL     OW80203   9.156   3.217   6.830
22715SOL    HW180204   9.190   3.252   6.918
22715SOL    HW280205   9.057   3.204   6.836
22716SOL     OW80206   7.832   2.918   5.531
22716SOL    HW180207   7.826   2.921   5.431
22716SOL    HW280208   7.746   2.951   5.570
22717SOL     OW80209   7.481   2.642   5.736
22717SOL    HW180210   7.566   2.591   5.750
22717SOL    HW280211   7.407   2.600   5.788
22718SOL     OW80212   8.954   2.737   5.959
22718SOL    HW180213   9.008   2.658   5.931
22718SOL    HW280214   8.975   2.814   5.899
22719SOL     OW80215   8.358   3.659   6.620
22719SOL    HW180216   8.328   3.591   6.552
22719SOL    HW280217   8.352   3.620   6.711
22720SOL     OW80218   8.071   2.817   5.608
22720SOL    HW180219   8.058   2.717   5.609
22720SOL    HW280220   7.983   2.862   5.594
22721SOL     OW80221   8.732   2.274   5.960
22721SOL    HW180222   8.679   2.345   5.915
22721SOL    HW280223   8.830   2.292   5.946
22722SOL     OW80224   7.722   2.465   7.028
22722SOL    HW180225   7.745   2.374   6.996
22722SOL    HW280226   7.672   2.459   7.114
22723SOL     OW80227   9.025   2.263   5.962
22723SOL    HW180228   9.110   2.211   5.948
22723SOL    HW280229   9.004   2.268   6.059
22724SOL     OW80230   8.277   3.481   6.430
22724SOL    HW180231   8.346   3.438   6.371
22724SOL    HW280232   8.188   3.478   6.385
22725SOL     OW80233   9.138   3.486   6.213
22725SOL    HW180234   9.109   3.576   6.245
22725SOL    HW280235   9.143   3.486   6.113
22726SOL     OW80236   8.614   2.783   6.219
22726SOL    HW180237   8.642   2.816   6.309
22726SOL    HW280238   8.521   2.813   6.200
22727SOL     OW80239   8.239   3.475   7.139
22727SOL    HW180240   8.173   3.415   7.094
22727SOL    HW280241   8.265   3.436   7.228
22728SOL     OW80242   7.715   2.932   6.441
22728SOL    HW180243   7.621   2.964   6.431
22728SOL    HW280244   7.731   2.905   6.536
22729SOL     OW80245   8.349   2.845   6.141
22729SOL    HW180246   8.325   2.807   6.052
22729SOL    HW280247   8.270   2.894   6.178
22730SOL     OW80248   8.672   3.237   6.989
22730SOL    HW180249   8.695   3.299   7.064
22730SOL    HW280250   8.600   3.278   6.933
22731SOL     OW80251   7.436   2.158   5.978
22731SOL    HW180252   7.507   2.190   5.916
22731SOL    HW280253   7.467   2.168   6.073
22732SOL     OW80254   9.052   3.650   5.728
22732SOL    HW180255   9.140   3.697   5.728
22732SOL    HW280256   9.039   3.603   5.640
22733SOL     OW80257   7.427   3.684   6.947
22733SOL    HW180258   7.378   3.771   6.944
22733SOL    HW280259   7.417   3.644   7.038
22734SOL     OW80260   7.694   2.407   6.437
22734SOL    HW180261   7.736   2.393   6.348
22734SOL    HW280262   7.747   2.358   6.507
22735SOL     OW80263   7.714   3.693   5.769
22735SOL    HW180264   7.806   3.712   5.735
22735SOL    HW280265   7.707   3.721   5.865
22736SOL     OW80266   8.771   3.622   6.662
22736SOL    HW180267   8.789   3.647   6.567
22736SOL    HW280268   8.725   3.533   6.666
22737SOL     OW80269   7.443   3.020   6.489
22737SOL    HW180270   7.358   3.019   6.437
22737SOL    HW280271   7.436   2.957   6.566
22738SOL     OW80272   8.158   1.883   5.975
22738SOL    HW180273   8.171   1.874   5.876
22738SOL    HW280274   8.125   1.975   5.996
22739SOL     OW80275   7.422   3.004   6.041
22739SOL    HW180276   7.512   3.042   6.059
22739SOL    HW280277   7.418   2.970   5.947
22740SOL     OW80278   9.023   2.228   7.076
22740SOL    HW180279   8.939   2.280   7.060
22740SOL    HW280280   9.085   2.281   7.134
22741SOL     OW80281   8.650   2.117   6.449
22741SOL    HW180282   8.665   2.177   6.370
22741SOL    HW280283   8.682   2.163   6.532
22742SOL     OW80284   8.769   1.969   5.720
22742SOL    HW180285   8.836   1.896   5.715
22742SOL    HW280286   8.724   1.968   5.809
22743SOL     OW80287   8.996   1.977   7.202
22743SOL    HW180288   8.932   1.909   7.165
22743SOL    HW280289   8.991   2.060   7.147
22744SOL     OW80290   8.143   2.092   6.291
22744SOL    HW180291   8.082   2.049   6.357
22744SOL    HW280292   8.238   2.081   6.321
22745SOL     OW80293   8.646   2.519   6.700
22745SOL    HW180294   8.719   2.565   6.650
22745SOL    HW280295   8.619   2.575   6.779
22746SOL     OW80296   8.927   1.921   5.998
22746SOL    HW180297   8.950   1.875   5.912
22746SOL    HW280298   8.832   1.950   5.996
22747SOL     OW80299   7.793   2.933   7.117
22747SOL    HW180300   7.868   2.915   7.053
22747SOL    HW280301   7.766   3.029   7.111
22748SOL     OW80302   7.500   3.219   6.676
22748SOL    HW180303   7.483   3.160   6.598
22748SOL    HW280304   7.416   3.232   6.728
22749SOL     OW80305   8.492   2.438   6.350
22749SOL    HW180306   8.578   2.401   6.315
22749SOL    HW280307   8.472   2.397   6.439
22750SOL     OW80308   9.155   2.455   7.215
22750SOL    HW180309   9.140   2.535   7.158
22750SOL    HW280310   9.249   2.454   7.248
22751SOL     OW80311   8.734   2.256   6.675
22751SOL    HW180312   8.709   2.353   6.686
22751SOL    HW280313   8.728   2.209   6.763
22752SOL     OW80314   8.943   2.361   7.365
22752SOL    HW180315   9.024   2.396   7.318
22752SOL    HW280316   8.971   2.296   7.435
22753SOL     OW80317   8.682   2.711   5.965
22753SOL    HW180318   8.651   2.735   6.058
22753SOL    HW280319   8.781   2.720   5.960
22754SOL     OW80320   8.931   2.720   6.235
22754SOL    HW180321   8.937   2.727   6.135
22754SOL    HW280322   8.840   2.748   6.265
22755SOL     OW80323   9.129   2.675   7.040
22755SOL    HW180324   9.062   2.749   7.045
22755SOL    HW280325   9.221   2.713   7.026
22756SOL     OW80326   8.964   2.169   5.695
22756SOL    HW180327   8.986   2.205   5.786
22756SOL    HW280328   8.891   2.102   5.703
22757SOL     OW80329   8.069   3.323   6.979
22757SOL    HW180330   8.009   3.403   6.973
22757SOL    HW280331   8.034   3.251   6.918
22758SOL     OW80332   7.419   3.560   7.194
22758SOL    HW180333   7.501   3.578   7.248
22758SOL    HW280334   7.339   3.564   7.253
22759SOL     OW80335   7.507   2.165   6.238
22759SOL    HW180336   7.492   2.254   6.279
22759SOL    HW280337   7.585   2.121   6.282
22760SOL     OW80338   7.717   2.504   5.788
22760SOL    HW180339   7.797   2.539   5.739
22760SOL    HW280340   7.721   2.535   5.883
22761SOL     OW80341   9.105   2.081   6.858
22761SOL    HW180342   9.075   2.135   6.936
22761SOL    HW280343   9.078   2.126   6.773
22762SOL     OW80344   7.818   3.660   6.262
22762SOL    HW180345   7.743   3.597   6.247
22762SOL    HW280346   7.905   3.610   6.261
22763SOL     OW80347   7.715   3.127   6.821
22763SOL    HW180348   7.707   3.155   6.917
22763SOL    HW280349   7.639   3.166   6.769
22764SOL     OW80350   8.106   3.030   5.975
22764SOL    HW180351   8.165   2.963   5.930
22764SOL    HW280352   8.113   3.020   6.074
22765SOL     OW80353   7.789   2.695   6.299
22765SOL    HW180354   7.778   2.782   6.347
22765SOL    HW280355   7.871   2.649   6.331
22766SOL     OW80356   7.650   2.239   5.821
22766SOL    HW180357   7.692   2.188   5.746
22766SOL    HW280358   7.667   2.336   5.808
22767SOL     OW80359   7.435   2.404   6.343
22767SOL    HW180360   7.357   2.449   6.386
22767SOL    HW280361   7.518   2.422   6.397
22768SOL     OW80362   7.864   2.984   5.851
22768SOL    HW180363   7.951   3.006   5.895
22768SOL    HW280364   7.849   3.046   5.774
22769SOL     OW80365   8.518   2.578   5.599
22769SOL    HW180366   8.445   2.628   5.552
22769SOL    HW280367   8.563   2.516   5.534
22770SOL     OW80368   8.669   2.013   5.971
22770SOL    HW180369   8.590   2.000   6.031
22770SOL    HW280370   8.692   2.110   5.967
22771SOL     OW80371   8.790   2.368   7.031
22771SOL    HW180372   8.743   2.389   7.117
22771SOL    HW280373   8.750   2.285   6.991
22772SOL     OW80374   7.461   1.926   5.699
22772SOL    HW180375   7.547   1.879   5.682
22772SOL    HW280376   7.467   1.980   5.783
22773SOL     OW80377   7.717   2.876   6.711
22773SOL    HW180378   7.713   2.802   6.778
22773SOL    HW280379   7.727   2.964   6.758
22774SOL     OW80380   9.025   2.921   5.770
22774SOL    HW180381   9.125   2.933   5.773
22774SOL    HW280382   8.992   2.941   5.678
22775SOL     OW80383   8.115   2.520   6.788
22775SOL    HW180384   8.152   2.600   6.742
22775SOL    HW280385   8.058   2.549   6.865
22776SOL     OW80386   8.246   2.920   7.039
22776SOL    HW180387   8.279   3.014   7.029
22776SOL    HW280388   8.290   2.879   7.119
22777SOL     OW80389   8.520   2.899   7.230
22777SOL    HW180390   8.448   2.832   7.247
22777SOL    HW280391   8.606   2.864   7.267
22778SOL     OW80392   8.448   2.058   6.134
22778SOL    HW180393   8.421   2.154   6.137
22778SOL    HW280394   8.426   2.015   6.221
22779SOL     OW80395   8.025   1.978   6.518
22779SOL    HW180396   7.974   1.900   6.553
22779SOL    HW280397   8.123   1.962   6.528
22780SOL     OW80398   7.677   3.645   6.842
22780SOL    HW180399   7.660   3.580   6.768
22780SOL    HW280400   7.592   3.660   6.893
22781SOL     OW80401   8.345   3.130   6.355
22781SOL    HW180402   8.377   3.212   6.307
22781SOL    HW280403   8.406   3.112   6.432
22782SOL     OW80404   8.083   2.795   6.423
22782SOL    HW180405   8.073   2.705   6.379
22782SOL    HW280406   8.103   2.783   6.520
22783SOL     OW80407   7.441   2.861   6.710
22783SOL    HW180408   7.540   2.868   6.708
22783SOL    HW280409   7.414   2.765   6.698
22784SOL     OW80410   7.672   1.892   5.937
22784SOL    HW180411   7.723   1.966   5.981
22784SOL    HW280412   7.590   1.871   5.991
22785SOL     OW80413   8.039   2.517   7.227
22785SOL    HW180414   8.011   2.556   7.139
22785SOL    HW280415   8.132   2.481   7.219
22786SOL     OW80416   7.462   2.917   5.782
22786SOL    HW180417   7.483   2.820   5.769
22786SOL    HW280418   7.514   2.971   5.716
22787SOL     OW80419   8.599   2.479   5.844
22787SOL    HW180420   8.623   2.561   5.896
22787SOL    HW280421   8.563   2.505   5.755
22788SOL     OW80422   7.638   2.682   6.891
22788SOL    HW180423   7.667   2.594   6.929
22788SOL    HW280424   7.593   2.736   6.962
22789SOL     OW80425   7.867   3.498   6.533
22789SOL    HW180426   7.938   3.473   6.467
22789SOL    HW280427   7.869   3.596   6.550
22790SOL     OW80428   8.136   2.993   6.249
22790SOL    HW180429   8.205   3.053   6.289
22790SOL    HW280430   8.111   2.922   6.316
22791SOL     OW80431   7.527   2.682   6.430
22791SOL    HW180432   7.616   2.663   6.389
22791SOL    HW280433   7.470   2.731   6.364
22792SOL     OW80434   7.435   2.770   7.373
22792SOL    HW180435   7.338   2.760   7.350
22792SOL    HW280436   7.455   2.718   7.457
22793SOL     OW80437   8.310   3.568   6.886
22793SOL    HW180438   8.304   3.534   6.979
22793SOL    HW280439   8.246   3.643   6.873
22794SOL     OW80440   8.505   3.094   6.580
22794SOL    HW180441   8.466   3.152   6.652
22794SOL    HW280442   8.495   2.998   6.606
22795SOL     OW80443   7.914   2.709   5.874
22795SOL    HW180444   7.898   2.805   5.850
22795SOL    HW280445   7.848   2.680   5.943
22796SOL     OW80446   8.716   2.126   6.917
22796SOL    HW180447   8.790   2.060   6.926
22796SOL    HW280448   8.629   2.078   6.903
22797SOL     OW80449   7.425   1.877   6.059
22797SOL    HW180450   7.333   1.851   6.030
22797SOL    HW280451   7.432   1.976   6.061
22798SOL     OW80452   8.547   1.992   7.221
22798SOL    HW180453   8.572   2.033   7.309
22798SOL    HW280454   8.486   2.054   7.172
22799SOL     OW80455   7.769   3.436   7.171
22799SOL    HW180456   7.728   3.502   7.234
22799SOL    HW280457   7.826   3.485   7.105
22800SOL     OW80458   9.209   3.292   7.091
22800SOL    HW180459   9.233   3.389   7.094
22800SOL    HW280460   9.120   3.277   7.133
22801SOL     OW80461   8.436   2.359   6.605
22801SOL    HW180462   8.504   2.422   6.643
22801SOL    HW280463   8.447   2.268   6.646
22802SOL     OW80464   7.844   3.330   6.179
22802SOL    HW180465   7.844   3.235   6.210
22802SOL    HW280466   7.755   3.371   6.197
22803SOL     OW80467   8.473   3.343   6.820
22803SOL    HW180468   8.418   3.425   6.836
22803SOL    HW280469   8.537   3.360   6.745
22804SOL     OW80470   7.643   3.616   7.347
22804SOL    HW180471   7.683   3.708   7.348
22804SOL    HW280472   7.650   3.576   7.438
22805SOL     OW80473   7.460   3.101   7.172
22805SOL    HW180474   7.434   3.025   7.112
22805SOL    HW280475   7.402   3.180   7.152
22806SOL     OW80476   7.612   3.470   6.641
22806SOL    HW180477   7.577   3.376   6.647
22806SOL    HW280478   7.700   3.469   6.593
22807SOL     OW80479   8.389   2.025   6.408
22807SOL    HW180480   8.482   2.053   6.431
22807SOL    HW280481   8.356   1.961   6.478
22808SOL     OW80482   8.465   3.086   6.039
22808SOL    HW180483   8.565   3.084   6.044
22808SOL    HW280484   8.427   3.004   6.080
22809SOL     OW80485   8.985   2.280   6.240
22809SOL    HW180486   9.010   2.365   6.286
22809SOL    HW280487   9.013   2.202   6.296
22810SOL     OW80488   8.260   2.861   5.827
22810SOL    HW180489   8.353   2.864   5.789
22810SOL    HW280490   8.195   2.843   5.753
22811SOL     OW80491   8.242   1.966   5.706
22811SOL    HW180492   8.302   1.887   5.705
22811SOL    HW280493   8.282   2.037   5.764
22812SOL     OW80494   7.856   2.310   6.233
22812SOL    HW180495   7.891   2.273   6.319
22812SOL    HW280496   7.930   2.357   6.185
22813SOL     OW80497   7.996   2.898   6.940
22813SOL    HW180498   8.087   2.897   6.981
22813SOL    HW280499   7.988   2.976   6.877
22814SOL     OW80500   9.133   2.940   6.857
22814SOL    HW180501   9.149   3.039   6.852
22814SOL    HW280502   9.169   2.896   6.775
22815SOL     OW80503   7.601   3.063   5.597
22815SOL    HW180504   7.561   3.092   5.509
22815SOL    HW280505   7.669   3.130   5.626
22816SOL     OW80506   8.065   3.538   5.777
22816SOL    HW180507   8.027   3.619   5.733
22816SOL    HW280508   7.991   3.485   5.819
22817SOL     OW80509   8.657   2.949   6.995
22817SOL    HW180510   8.607   2.929   7.080
22817SOL    HW280511   8.665   3.048   6.983
22818SOL     OW80512   7.912   3.557   6.963
22818SOL    HW180513   7.982   3.628   6.949
22818SOL    HW280514   7.828   3.584   6.918
22819SOL     OW80515   7.609   2.438   7.278
22819SOL    HW180516   7.588   2.367   7.346
22819SOL    HW280517   7.682   2.496   7.313
22820SOL     OW80518   9.064   3.341   6.591
22820SOL    HW180519   9.099   3.434   6.602
22820SOL    HW280520   9.088   3.286   6.671
22821SOL     OW80521   7.376   2.797   6.219
22821SOL    HW180522   7.402   2.874   6.162
22821SOL    HW280523   7.276   2.793   6.226
22822SOL     OW80524   7.956   2.623   6.988
22822SOL    HW180525   7.863   2.588   6.996
22822SOL    HW280526   7.954   2.721   6.967
22823SOL     OW80527   8.151   2.392   6.551
22823SOL    HW180528   8.249   2.370   6.550
22823SOL    HW280529   8.127   2.431   6.640
22824SOL     OW80530   7.982   3.136   6.789
22824SOL    HW180531   7.882   3.137   6.796
22824SOL    HW280532   8.010   3.171   6.700
22825SOL     OW80533   7.471   2.586   6.680
22825SOL    HW180534   7.544   2.608   6.745
22825SOL    HW280535   7.500   2.611   6.588
22826SOL     OW80536   7.703   3.188   7.087
22826SOL    HW180537   7.731   3.279   7.118
22826SOL    HW280538   7.612   3.167   7.122
22827SOL     OW80539   8.733   3.071   6.044
22827SOL    HW180540   8.820   3.066   6.093
22827SOL    HW280541   8.749   3.057   5.946
22828SOL     OW80542   8.056   2.130   6.041
22828SOL    HW180543   7.958   2.117   6.035
22828SOL    HW280544   8.087   2.112   6.134
22829SOL     OW80545   9.010   1.902   6.255
22829SOL    HW180546   8.972   1.917   6.164
22829SOL    HW280547   9.110   1.904   6.250
22830SOL     OW80548   8.058   2.542   6.332
22830SOL    HW180549   8.091   2.485   6.408
22830SOL    HW280550   8.077   2.496   6.245
22831SOL     OW80551   8.664   3.366   6.621
22831SOL    HW180552   8.724   3.287   6.635
22831SOL    HW280553   8.661   3.388   6.523
22832SOL     OW80554   8.707   2.293   6.242
22832SOL    HW180555   8.682   2.285   6.146
22832SOL    HW280556   8.807   2.297   6.251
22833SOL     OW80557   8.463   3.333   8.085
22833SOL    HW180558   8.562   3.327   8.098
22833SOL    HW280559   8.441   3.323   7.988
22834SOL     OW80560   8.991   3.096   7.974
22834SOL    HW180561   8.995   3.187   8.015
22834SOL    HW280562   9.078   3.076   7.927
22835SOL     OW80563   9.054   2.518   8.800
22835SOL    HW180564   8.960   2.489   8.820
22835SOL    HW280565   9.110   2.508   8.882
22836SOL     OW80566   8.731   3.358   8.173
22836SOL    HW180567   8.724   3.458   8.182
22836SOL    HW280568   8.825   3.333   8.153
22837SOL     OW80569   8.600   1.934   8.718
22837SOL    HW180570   8.527   1.880   8.761
22837SOL    HW280571   8.643   1.880   8.646
22838SOL     OW80572   8.270   2.661   9.119
22838SOL    HW180573   8.271   2.708   9.030
22838SOL    HW280574   8.216   2.714   9.184
22839SOL     OW80575   7.985   1.928   7.556
22839SOL    HW180576   8.058   1.950   7.491
22839SOL    HW280577   7.960   2.010   7.608
22840SOL     OW80578   8.284   3.182   8.925
22840SOL    HW180579   8.217   3.251   8.898
22840SOL    HW280580   8.306   3.124   8.846
22841SOL     OW80581   7.869   3.065   8.085
22841SOL    HW180582   7.815   3.014   8.152
22841SOL    HW280583   7.965   3.038   8.091
22842SOL     OW80584   8.121   2.433   7.954
22842SOL    HW180585   8.127   2.515   7.896
22842SOL    HW280586   8.107   2.353   7.897
22843SOL     OW80587   8.679   2.385   9.243
22843SOL    HW180588   8.776   2.387   9.219
22843SOL    HW280589   8.658   2.297   9.287
22844SOL     OW80590   7.575   2.697   7.879
22844SOL    HW180591   7.662   2.708   7.927
22844SOL    HW280592   7.510   2.767   7.910
22845SOL     OW80593   8.174   3.450   7.930
22845SOL    HW180594   8.249   3.391   7.901
22845SOL    HW280595   8.181   3.538   7.884
22846SOL     OW80596   9.194   3.374   7.729
22846SOL    HW180597   9.283   3.329   7.740
22846SOL    HW280598   9.200   3.442   7.656
22847SOL     OW80599   9.079   2.163   8.478
22847SOL    HW180600   9.110   2.254   8.507
22847SOL    HW280601   8.980   2.165   8.466
22848SOL     OW80602   8.472   2.227   7.687
22848SOL    HW180603   8.522   2.314   7.682
22848SOL    HW280604   8.473   2.193   7.781
22849SOL     OW80605   7.551   2.817   8.930
22849SOL    HW180606   7.644   2.851   8.947
22849SOL    HW280607   7.508   2.793   9.017
22850SOL     OW80608   7.823   2.572   7.384
22850SOL    HW180609   7.820   2.672   7.385
22850SOL    HW280610   7.904   2.542   7.333
22851SOL     OW80611   8.063   3.419   8.183
22851SOL    HW180612   8.102   3.433   8.092
22851SOL    HW280613   7.969   3.385   8.174
22852SOL     OW80614   9.007   3.323   8.130
22852SOL    HW180615   9.052   3.298   8.215
22852SOL    HW280616   9.065   3.387   8.079
22853SOL     OW80617   7.787   3.144   7.833
22853SOL    HW180618   7.802   3.119   7.928
22853SOL    HW280619   7.872   3.133   7.782
22854SOL     OW80620   8.594   2.146   7.455
22854SOL    HW180621   8.673   2.089   7.478
22854SOL    HW280622   8.545   2.170   7.538
22855SOL     OW80623   7.821   2.193   7.867
22855SOL    HW180624   7.774   2.231   7.947
22855SOL    HW280625   7.758   2.188   7.790
22856SOL     OW80626   9.157   2.413   8.568
22856SOL    HW180627   9.250   2.448   8.566
22856SOL    HW280628   9.109   2.447   8.649
22857SOL     OW80629   9.280   3.634   8.494
22857SOL    HW180630   9.279   3.638   8.594
22857SOL    HW280631   9.211   3.697   8.458
22858SOL     OW80632   8.377   2.411   8.059
22858SOL    HW180633   8.430   2.495   8.049
22858SOL    HW280634   8.285   2.426   8.022
22859SOL     OW80635   8.593   2.798   7.570
22859SOL    HW180636   8.603   2.754   7.659
22859SOL    HW280637   8.564   2.730   7.502
22860SOL     OW80638   8.327   2.167   9.298
22860SOL    HW180639   8.425   2.168   9.319
22860SOL    HW280640   8.278   2.219   9.368
22861SOL     OW80641   9.120   2.514   7.739
22861SOL    HW180642   9.082   2.422   7.747
22861SOL    HW280643   9.188   2.528   7.811
22862SOL     OW80644   8.420   3.587   7.485
22862SOL    HW180645   8.381   3.504   7.444
22862SOL    HW280646   8.518   3.575   7.498
22863SOL     OW80647   8.115   1.885   8.998
22863SOL    HW180648   8.150   1.792   8.995
22863SOL    HW280649   8.130   1.924   9.089
22864SOL     OW80650   9.056   2.443   8.316
22864SOL    HW180651   8.959   2.466   8.327
22864SOL    HW280652   9.100   2.439   8.405
22865SOL     OW80653   8.106   2.978   9.110
22865SOL    HW180654   8.073   3.072   9.120
22865SOL    HW280655   8.094   2.929   9.196
22866SOL     OW80656   8.800   1.822   8.260
22866SOL    HW180657   8.745   1.905   8.254
22866SOL    HW280658   8.889   1.837   8.217
22867SOL     OW80659   9.070   2.119   9.144
22867SOL    HW180660   9.047   2.100   9.239
22867SOL    HW280661   9.072   2.034   9.092
22868SOL     OW80662   7.594   3.327   7.766
22868SOL    HW180663   7.660   3.255   7.789
22868SOL    HW280664   7.636   3.392   7.704
22869SOL     OW80665   7.578   3.429   8.034
22869SOL    HW180666   7.481   3.440   8.054
22869SOL    HW280667   7.590   3.405   7.938
22870SOL     OW80668   7.833   2.846   7.373
22870SOL    HW180669   7.830   2.872   7.276
22870SOL    HW280670   7.765   2.899   7.423
22871SOL     OW80671   8.342   3.010   8.710
22871SOL    HW180672   8.439   3.024   8.690
22871SOL    HW280673   8.289   3.020   8.626
22872SOL     OW80674   7.465   2.650   7.635
22872SOL    HW180675   7.509   2.664   7.723
22872SOL    HW280676   7.379   2.600   7.648
22873SOL     OW80677   8.933   2.709   7.804
22873SOL    HW180678   8.993   2.632   7.782
22873SOL    HW280679   8.961   2.789   7.750
22874SOL     OW80680   8.194   3.708   8.344
22874SOL    HW180681   8.263   3.639   8.320
22874SOL    HW280682   8.122   3.665   8.398
22875SOL     OW80683   8.100   2.753   7.425
22875SOL    HW180684   8.102   2.657   7.452
22875SOL    HW280685   8.006   2.782   7.407
22876SOL     OW80686   8.769   2.280   7.805
22876SOL    HW180687   8.726   2.346   7.743
22876SOL    HW280688   8.868   2.289   7.799
22877SOL     OW80689   7.625   2.428   8.846
22877SOL    HW180690   7.589   2.340   8.817
22877SOL    HW280691   7.606   2.441   8.943
22878SOL     OW80692   7.510   2.172   8.807
22878SOL    HW180693   7.566   2.108   8.754
22878SOL    HW280694   7.413   2.154   8.788
22879SOL     OW80695   9.046   2.260   7.831
22879SOL    HW180696   9.139   2.227   7.817
22879SOL    HW280697   9.027   2.263   7.929
22880SOL     OW80698   8.321   3.462   8.279
22880SOL    HW180699   8.379   3.422   8.208
22880SOL    HW280700   8.225   3.443   8.259
22881SOL     OW80701   8.212   2.203   7.619
22881SOL    HW180702   8.161   2.190   7.703
22881SOL    HW280703   8.310   2.213   7.641
22882SOL     OW80704   9.175   3.480   7.979
22882SOL    HW180705   9.178   3.578   7.959
22882SOL    HW280706   9.173   3.428   7.894
22883SOL     OW80707   8.509   2.659   8.039
22883SOL    HW180708   8.571   2.707   8.101
22883SOL    HW280709   8.431   2.718   8.017
22884SOL     OW80710   8.201   3.525   9.037
22884SOL    HW180711   8.175   3.463   8.963
22884SOL    HW280712   8.212   3.473   9.121
22885SOL     OW80713   8.689   2.835   8.160
22885SOL    HW180714   8.689   2.886   8.246
22885SOL    HW280715   8.700   2.899   8.084
22886SOL     OW80716   7.726   2.917   8.267
22886SOL    HW180717   7.630   2.945   8.281
22886SOL    HW280718   7.770   2.903   8.355
22887SOL     OW80719   8.297   2.817   7.970
22887SOL    HW180720   8.248   2.765   7.900
22887SOL    HW280721   8.231   2.868   8.025
22888SOL     OW80722   7.476   2.192   7.898
22888SOL    HW180723   7.528   2.201   7.813
22888SOL    HW280724   7.530   2.227   7.974
22889SOL     OW80725   8.088   2.637   8.773
22889SOL    HW180726   8.137   2.707   8.824
22889SOL    HW280727   8.128   2.628   8.682
22890SOL     OW80728   7.471   3.563   8.824
22890SOL    HW180729   7.479   3.663   8.830
22890SOL    HW280730   7.449   3.525   8.914
22891SOL     OW80731   8.149   2.651   7.798
22891SOL    HW180732   8.070   2.713   7.796
22891SOL    HW280733   8.175   2.629   7.704
22892SOL     OW80734   7.701   3.535   7.613
22892SOL    HW180735   7.785   3.578   7.583
22892SOL    HW280736   7.662   3.587   7.689
22893SOL     OW80737   7.467   2.979   8.351
22893SOL    HW180738   7.384   2.991   8.295
22893SOL    HW280739   7.449   2.911   8.422
22894SOL     OW80740   8.200   1.889   7.827
22894SOL    HW180741   8.173   1.827   7.753
22894SOL    HW280742   8.154   1.977   7.817
22895SOL     OW80743   7.394   3.112   7.831
22895SOL    HW180744   7.449   3.196   7.829
22895SOL    HW280745   7.420   3.054   7.754
22896SOL     OW80746   8.961   2.197   8.897
22896SOL    HW180747   8.916   2.286   8.899
22896SOL    HW280748   8.993   2.173   8.989
22897SOL     OW80749   8.662   2.057   8.260
22897SOL    HW180750   8.683   2.120   8.185
22897SOL    HW280751   8.696   2.095   8.346
22898SOL     OW80752   8.790   1.981   7.560
22898SOL    HW180753   8.813   1.887   7.533
22898SOL    HW280754   8.758   1.981   7.655
22899SOL     OW80755   9.053   1.906   8.974
22899SOL    HW180756   8.984   1.833   8.981
22899SOL    HW280757   9.044   1.952   8.886
22900SOL     OW80758   8.192   2.170   8.117
22900SOL    HW180759   8.250   2.091   8.138
22900SOL    HW280760   8.244   2.254   8.131
22901SOL     OW80761   8.790   2.469   8.404
22901SOL    HW180762   8.710   2.450   8.347
22901SOL    HW280763   8.767   2.536   8.474
22902SOL     OW80764   8.980   1.911   7.856
22902SOL    HW180765   9.003   1.871   7.767
22902SOL    HW280766   8.886   1.947   7.852
22903SOL     OW80767   7.991   3.248   9.164
22903SOL    HW180768   7.941   3.306   9.099
22903SOL    HW280769   8.076   3.294   9.190
22904SOL     OW80770   7.792   2.935   8.990
22904SOL    HW180771   7.859   2.921   8.918
22904SOL    HW280772   7.772   3.033   8.998
22905SOL     OW80773   7.515   3.226   8.474
22905SOL    HW180774   7.503   3.142   8.420
22905SOL    HW280775   7.434   3.241   8.530
22906SOL     OW80776   8.587   2.392   8.247
22906SOL    HW180777   8.647   2.339   8.187
22906SOL    HW280778   8.496   2.398   8.206
22907SOL     OW80779   9.156   2.540   9.058
22907SOL    HW180780   9.151   2.637   9.035
22907SOL    HW280781   9.245   2.520   9.098
22908SOL     OW80782   8.803   2.198   8.464
22908SOL    HW180783   8.799   2.295   8.441
22908SOL    HW280784   8.772   2.185   8.559
22909SOL     OW80785   8.960   2.376   9.185
22909SOL    HW180786   9.022   2.442   9.141
22909SOL    HW280787   9.000   2.284   9.179
22910SOL     OW80788   8.658   2.672   7.804
22910SOL    HW180789   8.613   2.668   7.893
22910SOL    HW280790   8.756   2.690   7.817
22911SOL     OW80791   8.938   2.744   8.075
22911SOL    HW180792   8.933   2.727   7.977
22911SOL    HW280793   8.846   2.753   8.113
22912SOL     OW80794   9.080   2.780   8.915
22912SOL    HW180795   9.067   2.708   8.847
22912SOL    HW280796   9.107   2.865   8.870
22913SOL     OW80797   8.996   2.171   7.564
22913SOL    HW180798   9.015   2.190   7.661
22913SOL    HW280799   8.926   2.101   7.558
22914SOL     OW80800   8.098   3.363   8.832
22914SOL    HW180801   8.035   3.441   8.820
22914SOL    HW280802   8.076   3.292   8.765
22915SOL     OW80803   7.532   2.146   9.083
22915SOL    HW180804   7.533   2.159   8.984
22915SOL    HW280805   7.450   2.093   9.108
22916SOL     OW80806   7.410   3.469   9.072
22916SOL    HW180807   7.495   3.496   9.117
22916SOL    HW280808   7.333   3.492   9.132
22917SOL     OW80809   7.671   2.319   8.069
22917SOL    HW180810   7.612   2.398   8.085
22917SOL    HW280811   7.757   2.331   8.119
22918SOL     OW80812   7.659   2.449   7.570
22918SOL    HW180813   7.733   2.490   7.518
22918SOL    HW280814   7.593   2.520   7.597
22919SOL     OW80815   9.141   2.076   8.731
22919SOL    HW180816   9.077   2.130   8.787
22919SOL    HW280817   9.124   2.094   8.634
22920SOL     OW80818   7.637   3.646   8.210
22920SOL    HW180819   7.635   3.581   8.134
22920SOL    HW280820   7.729   3.685   8.218
22921SOL     OW80821   7.760   3.170   8.596
22921SOL    HW180822   7.748   3.186   8.694
22921SOL    HW280823   7.678   3.200   8.547
22922SOL     OW80824   7.790   2.727   8.067
22922SOL    HW180825   7.772   2.805   8.127
22922SOL    HW280826   7.786   2.642   8.119
22923SOL     OW80827   7.629   2.200   7.672
22923SOL    HW180828   7.595   2.136   7.603
22923SOL    HW280829   7.640   2.290   7.630
22924SOL     OW80830   8.503   2.561   7.419
22924SOL    HW180831   8.447   2.616   7.358
22924SOL    HW280832   8.566   2.505   7.365
22925SOL     OW80833   8.225   2.515   7.549
22925SOL    HW180834   8.319   2.527   7.517
22925SOL    HW280835   8.204   2.418   7.556
22926SOL     OW80836   8.719   2.013   7.824
22926SOL    HW180837   8.634   1.996   7.874
22926SOL    HW280838   8.735   2.112   7.818
22927SOL     OW80839   8.818   2.428   8.899
22927SOL    HW180840   8.806   2.497   8.970
22927SOL    HW280841   8.729   2.392   8.871
22928SOL     OW80842   7.527   1.964   7.559
22928SOL    HW180843   7.606   1.904   7.543
22928SOL    HW280844   7.496   1.953   7.653
22929SOL     OW80845   7.841   2.915   8.527
22929SOL    HW180846   7.876   2.881   8.614
22929SOL    HW280847   7.803   3.006   8.539
22930SOL     OW80848   9.032   2.899   7.636
22930SOL    HW180849   9.131   2.912   7.627
22930SOL    HW280850   8.986   2.940   7.557
22931SOL     OW80851   8.216   2.848   8.899
22931SOL    HW180852   8.274   2.903   8.839
22931SOL    HW280853   8.185   2.903   8.976
22932SOL     OW80854   8.469   2.163   7.951
22932SOL    HW180855   8.448   2.252   7.990
22932SOL    HW280856   8.441   2.091   8.015
22933SOL     OW80857   8.544   3.527   9.245
22933SOL    HW180858   8.482   3.463   9.200
22933SOL    HW280859   8.555   3.609   9.187
22934SOL     OW80860   7.691   3.569   8.656
22934SOL    HW180861   7.654   3.543   8.566
22934SOL    HW280862   7.622   3.552   8.726
22935SOL     OW80863   8.346   3.121   8.245
22935SOL    HW180864   8.349   3.186   8.169
22935SOL    HW280865   8.428   3.132   8.301
22936SOL     OW80866   8.050   2.832   8.366
22936SOL    HW180867   8.042   2.741   8.327
22936SOL    HW280868   7.969   2.852   8.422
22937SOL     OW80869   7.388   2.792   8.535
22937SOL    HW180870   7.443   2.732   8.594
22937SOL    HW280871   7.304   2.744   8.509
22938SOL     OW80872   7.665   1.835   7.815
22938SOL    HW180873   7.724   1.828   7.895
22938SOL    HW280874   7.576   1.870   7.843
22939SOL     OW80875   8.038   2.465   9.139
22939SOL    HW180876   7.991   2.474   9.052
22939SOL    HW280877   8.127   2.510   9.134
22940SOL     OW80878   7.472   2.948   7.623
22940SOL    HW180879   7.484   2.849   7.630
22940SOL    HW280880   7.525   2.983   7.546
22941SOL     OW80881   9.189   2.077   8.239
22941SOL    HW180882   9.156   2.100   8.330
22941SOL    HW280883   9.288   2.065   8.242
22942SOL     OW80884   8.203   3.037   8.471
22942SOL    HW180885   8.152   2.956   8.439
22942SOL    HW280886   8.251   3.078   8.394
22943SOL     OW80887   8.614   2.456   7.651
22943SOL    HW180888   8.630   2.534   7.713
22943SOL    HW280889   8.578   2.489   7.564
22944SOL     OW80890   7.559   2.648   8.701
22944SOL    HW180891   7.584   2.564   8.749
22944SOL    HW280892   7.566   2.726   8.763
22945SOL     OW80893   8.302   3.365   7.385
22945SOL    HW180894   8.243   3.347   7.464
22945SOL    HW280895   8.337   3.278   7.350
22946SOL     OW80896   7.981   3.537   8.421
22946SOL    HW180897   8.011   3.487   8.340
22946SOL    HW280898   7.950   3.472   8.491
22947SOL     OW80899   8.134   2.966   8.141
22947SOL    HW180900   8.209   3.026   8.171
22947SOL    HW280901   8.101   2.914   8.220
22948SOL     OW80902   8.373   3.286   7.826
22948SOL    HW180903   8.372   3.293   7.726
22948SOL    HW280904   8.396   3.193   7.852
22949SOL     OW80905   7.419   2.762   9.158
22949SOL    HW180906   7.319   2.767   9.161
22949SOL    HW280907   7.454   2.724   9.244
22950SOL     OW80908   8.339   3.743   8.932
22950SOL    HW180909   8.297   3.661   8.972
22950SOL    HW280910   8.282   3.777   8.858
22951SOL     OW80911   7.969   2.194   9.142
22951SOL    HW180912   8.028   2.147   9.076
22951SOL    HW280913   7.997   2.289   9.151
22952SOL     OW80914   7.932   2.816   7.842
22952SOL    HW180915   7.879   2.894   7.809
22952SOL    HW280916   7.890   2.780   7.925
22953SOL     OW80917   8.736   2.170   8.726
22953SOL    HW180918   8.811   2.161   8.791
22953SOL    HW280919   8.679   2.088   8.731
22954SOL     OW80920   7.412   1.923   7.869
22954SOL    HW180921   7.352   1.891   7.942
22954SOL    HW280922   7.430   2.020   7.881
22955SOL     OW80923   8.532   1.999   9.139
22955SOL    HW180924   8.582   2.051   9.208
22955SOL    HW280925   8.435   2.024   9.142
22956SOL     OW80926   7.822   3.426   9.021
22956SOL    HW180927   7.760   3.479   9.079
22956SOL    HW280928   7.863   3.485   8.952
22957SOL     OW80929   9.157   3.272   8.909
22957SOL    HW180930   9.191   3.364   8.928
22957SOL    HW280931   9.064   3.263   8.944
22958SOL     OW80932   7.810   3.328   8.153
22958SOL    HW180933   7.824   3.233   8.126
22958SOL    HW280934   7.724   3.362   8.114
22959SOL     OW80935   7.639   3.578   9.176
22959SOL    HW180936   7.609   3.668   9.145
22959SOL    HW280937   7.659   3.581   9.274
22960SOL     OW80938   7.508   3.102   8.986
22960SOL    HW180939   7.500   3.008   8.954
22960SOL    HW280940   7.423   3.152   8.968
22961SOL     OW80941   7.549   3.508   8.429
22961SOL    HW180942   7.550   3.410   8.413
22961SOL    HW280943   7.578   3.556   8.346
22962SOL     OW80944   8.395   1.983   8.147
22962SOL    HW180945   8.475   1.981   8.207
22962SOL    HW280946   8.361   1.890   8.133
22963SOL     OW80947   8.453   3.044   7.912
22963SOL    HW180948   8.548   3.026   7.935
22963SOL    HW280949   8.399   2.960   7.924
22964SOL     OW80950   9.025   2.260   8.110
22964SOL    HW180951   9.032   2.337   8.173
22964SOL    HW280952   9.084   2.185   8.141
22965SOL     OW80953   8.221   2.009   7.423
22965SOL    HW180954   8.282   1.935   7.448
22965SOL    HW280955   8.219   2.078   7.495
22966SOL     OW80956   7.947   2.337   8.151
22966SOL    HW180957   7.991   2.253   8.180
22966SOL    HW280958   7.998   2.377   8.075
22967SOL     OW80959   7.972   2.936   8.782
22967SOL    HW180960   8.054   2.896   8.823
22967SOL    HW280961   7.993   3.028   8.749
22968SOL     OW80962   9.154   3.010   8.786
22968SOL    HW180963   9.157   3.107   8.808
22968SOL    HW280964   9.217   2.990   8.712
22969SOL     OW80965   7.616   3.050   7.408
22969SOL    HW180966   7.554   3.050   7.330
22969SOL    HW280967   7.652   3.142   7.423
22970SOL     OW80968   7.924   3.572   8.804
22970SOL    HW180969   7.977   3.656   8.790
22970SOL    HW280970   7.844   3.573   8.745
22971SOL     OW80971   7.567   2.426   9.118
22971SOL    HW180972   7.566   2.326   9.128
22971SOL    HW280973   7.645   2.463   9.169
22972SOL     OW80974   7.392   2.872   7.970
22972SOL    HW180975   7.395   2.964   7.931
22972SOL    HW280976   7.298   2.852   7.999
22973SOL     OW80977   7.901   2.490   8.911
22973SOL    HW180978   7.813   2.474   8.867
22973SOL    HW280979   7.959   2.544   8.850
22974SOL     OW80980   9.034   2.965   8.215
22974SOL    HW180981   9.017   3.023   8.135
22974SOL    HW280982   9.002   2.872   8.196
22975SOL     OW80983   8.032   3.173   8.646
22975SOL    HW180984   7.938   3.179   8.612
22975SOL    HW280985   8.091   3.135   8.575
22976SOL     OW80986   7.728   3.214   8.866
22976SOL    HW180987   7.764   3.291   8.919
22976SOL    HW280988   7.642   3.183   8.907
22977SOL     OW80989   9.004   3.550   9.177
22977SOL    HW180990   8.920   3.496   9.178
22977SOL    HW280991   8.989   3.634   9.125
22978SOL     OW80992   8.734   2.995   7.941
22978SOL    HW180993   8.826   3.030   7.959
22978SOL    HW280994   8.717   2.992   7.843
22979SOL     OW80995   8.087   2.157   7.859
22979SOL    HW180996   7.987   2.164   7.863
22979SOL    HW280997   8.124   2.149   7.951
22980SOL     OW80998   9.032   1.878   8.126
22980SOL    HW180999   9.013   1.900   8.030
22980SOL    HW281000   9.094   1.947   8.163
22981SOL     OW81001   8.034   2.594   8.233
22981SOL    HW181002   7.986   2.507   8.234
22981SOL    HW281003   8.079   2.606   8.144
22982SOL     OW81004   8.567   3.232   8.372
22982SOL    HW181005   8.511   3.309   8.403
22982SOL    HW281006   8.635   3.265   8.306
22983SOL     OW81007   8.752   2.249   8.082
22983SOL    HW181008   8.736   2.262   7.984
22983SOL    HW281009   8.850   2.249   8.100
22984SOL     OW81010   8.492   3.222   9.962
22984SOL    HW181011   8.561   3.182   9.901
22984SOL    HW281012   8.426   3.274   9.908
22985SOL     OW81013   7.748   2.071   9.235
22985SOL    HW181014   7.669   2.096   9.178
22985SOL    HW281015   7.830   2.117   9.201
22986SOL     OW81016   7.932   3.352   9.616
22986SOL    HW181017   7.887   3.379   9.701
22986SOL    HW281018   8.005   3.287   9.637
22987SOL     OW81019   7.933   1.879   9.340
22987SOL    HW181020   8.025   1.904   9.310
22987SOL    HW281021   7.868   1.950   9.313
22988SOL     OW81022   7.834   3.081   9.893
22988SOL    HW181023   7.772   3.076   9.972
22988SOL    HW281024   7.925   3.050   9.921
22989SOL     OW81025   8.110   2.445   9.741
22989SOL    HW181026   8.119   2.542   9.721
22989SOL    HW281027   8.143   2.391   9.664
22990SOL     OW81028   7.810   3.266   9.372
22990SOL    HW181029   7.876   3.268   9.298
22990SOL    HW281030   7.850   3.307   9.454
22991SOL     OW81031   7.691   2.631   9.709
22991SOL    HW181032   7.714   2.576   9.790
22991SOL    HW281033   7.602   2.675   9.722
22992SOL     OW81034   8.332   3.602   9.847
22992SOL    HW181035   8.339   3.504   9.829
22992SOL    HW281036   8.275   3.645   9.777
22993SOL     OW81037   9.252   3.469   9.648
22993SOL    HW181038   9.262   3.557   9.694
22993SOL    HW281039   9.188   3.477   9.572
22994SOL     OW81040   8.463   2.196   9.618
22994SOL    HW181041   8.509   2.277   9.654
22994SOL    HW281042   8.464   2.124   9.688
22995SOL     OW81043   7.795   2.546   9.256
22995SOL    HW181044   7.799   2.645   9.246
22995SOL    HW281045   7.878   2.505   9.219
22996SOL     OW81046   7.690   3.121   9.665
22996SOL    HW181047   7.743   3.108   9.749
22996SOL    HW281048   7.737   3.076   9.589
22997SOL     OW81049   8.597   2.148   9.378
22997SOL    HW181050   8.658   2.070   9.390
22997SOL    HW281051   8.555   2.171   9.466
22998SOL     OW81052   7.812   2.111   9.687
22998SOL    HW181053   7.835   2.179   9.756
22998SOL    HW281054   7.758   2.154   9.614
22999SOL     OW81055   9.217   3.486   0.408
22999SOL    HW181056   9.238   3.583   0.419
22999SOL    HW281057   9.301   3.433   0.411
23000SOL     OW81058   8.327   2.335   9.883
23000SOL    HW181059   8.397   2.390   9.927
23000SOL    HW281060   8.256   2.394   9.845
23001SOL     OW81061   8.594   2.823   9.437
23001SOL    HW181062   8.615   2.775   9.523
23001SOL    HW281063   8.553   2.759   9.372
23002SOL     OW81064   9.140   2.517   9.606
23002SOL    HW181065   9.090   2.434   9.583
23002SOL    HW281066   9.201   2.499   9.684
23003SOL     OW81067   8.362   3.690   9.396
23003SOL    HW181068   8.425   3.622   9.359
23003SOL    HW281069   8.346   3.671   9.493
23004SOL     OW81070   7.442   2.445   9.780
23004SOL    HW181071   7.424   2.429   9.877
23004SOL    HW281072   7.448   2.544   9.764
23005SOL     OW81073   7.579   3.374   9.600
23005SOL    HW181074   7.618   3.282   9.609
23005SOL    HW281075   7.629   3.425   9.530
23006SOL     OW81076   7.565   3.435   9.868
23006SOL    HW181077   7.471   3.445   9.899
23006SOL    HW281078   7.566   3.419   9.770
23007SOL     OW81079   7.834   2.817   9.242
23007SOL    HW181080   7.820   2.854   9.151
23007SOL    HW281081   7.813   2.887   9.310
23008SOL     OW81082   7.514   2.670   9.398
23008SOL    HW181083   7.603   2.626   9.389
23008SOL    HW281084   7.449   2.608   9.443
23009SOL     OW81085   8.960   2.724   9.647
23009SOL    HW181086   9.018   2.645   9.626
23009SOL    HW281087   8.986   2.801   9.588
23010SOL     OW81088   8.101   2.770   9.316
23010SOL    HW181089   8.130   2.685   9.360
23010SOL    HW281090   8.003   2.766   9.297
23011SOL     OW81091   8.757   2.273   9.637
23011SOL    HW181092   8.704   2.343   9.590
23011SOL    HW281093   8.853   2.280   9.610
23012SOL     OW81094   9.034   2.253   9.627
23012SOL    HW181095   9.131   2.229   9.621
23012SOL    HW281096   9.011   2.275   9.722
23013SOL     OW81097   8.218   2.280   9.538
23013SOL    HW181098   8.156   2.206   9.563
23013SOL    HW281099   8.310   2.258   9.568
23014SOL     OW81100   8.341   3.157   9.380
23014SOL    HW181101   8.381   3.138   9.470
23014SOL    HW281102   8.402   3.124   9.308
23015SOL     OW81103   8.518   2.753   9.898
23015SOL    HW181104   8.530   2.794   9.989
23015SOL    HW281105   8.445   2.801   9.850
23016SOL     OW81106   8.805   2.723   0.036
23016SOL    HW181107   8.724   2.681   0.078
23016SOL    HW281108   8.795   2.822   0.037
23017SOL     OW81109   8.304   2.883   9.777
23017SOL    HW181110   8.252   2.813   9.728
23017SOL    HW281111   8.242   2.936   9.834
23018SOL     OW81112   7.458   2.186   9.690
23018SOL    HW181113   7.525   2.179   9.616
23018SOL    HW281114   7.465   2.276   9.733
23019SOL     OW81115   9.082   3.599   9.447
23019SOL    HW181116   9.160   3.660   9.440
23019SOL    HW281117   9.052   3.573   9.355
23020SOL     OW81118   8.151   2.699   9.645
23020SOL    HW181119   8.058   2.730   9.625
23020SOL    HW281120   8.190   2.654   9.565
23021SOL     OW81121   7.688   3.622   9.451
23021SOL    HW181122   7.774   3.661   9.419
23021SOL    HW281123   7.668   3.655   9.543
23022SOL     OW81124   8.234   1.838   9.601
23022SOL    HW181125   8.181   1.775   9.544
23022SOL    HW281126   8.184   1.924   9.611
23023SOL     OW81127   7.447   2.984   9.685
23023SOL    HW181128   7.523   3.045   9.706
23023SOL    HW281129   7.440   2.971   9.586
23024SOL     OW81130   8.754   1.929   9.432
23024SOL    HW181131   8.742   1.832   9.411
23024SOL    HW281132   8.741   1.944   9.530
23025SOL     OW81133   8.173   2.115   9.923
23025SOL    HW181134   8.198   2.064   0.005
23025SOL    HW281135   8.240   2.187   9.907
23026SOL     OW81136   8.988   1.882   9.684
23026SOL    HW181137   8.991   1.823   9.603
23026SOL    HW281138   8.898   1.926   9.689
23027SOL     OW81139   8.678   2.697   9.668
23027SOL    HW181140   8.637   2.717   9.757
23027SOL    HW281141   8.777   2.708   9.673
23028SOL     OW81142   9.042   2.722   9.908
23028SOL    HW181143   9.015   2.732   9.812
23028SOL    HW281144   8.960   2.705   9.964
23029SOL     OW81145   8.991   2.067   9.400
23029SOL    HW181146   9.000   2.128   9.478
23029SOL    HW281147   8.905   2.017   9.405
23030SOL     OW81148   7.710   2.447   9.496
23030SOL    HW181149   7.756   2.484   9.416
23030SOL    HW281150   7.711   2.516   9.569
23031SOL     OW81151   7.739   3.646   9.928
23031SOL    HW181152   7.665   3.578   9.926
23031SOL    HW281153   7.827   3.599   9.934
23032SOL     OW81154   8.119   3.165   9.693
23032SOL    HW181155   8.128   3.102   9.616
23032SOL    HW281156   8.110   3.113   9.778
23033SOL     OW81157   7.642   2.190   9.471
23033SOL    HW181158   7.691   2.148   9.394
23033SOL    HW281159   7.663   2.287   9.474
23034SOL     OW81160   7.388   2.455   0.048
23034SOL    HW181161   7.439   2.537   0.074
23034SOL    HW281162   7.351   2.411   0.130
23035SOL     OW81163   7.849   3.009   9.458
23035SOL    HW181164   7.949   3.012   9.464
23035SOL    HW281165   7.816   3.092   9.414
23036SOL     OW81166   8.480   2.570   9.293
23036SOL    HW181167   8.422   2.599   9.216
23036SOL    HW281168   8.552   2.510   9.259
23037SOL     OW81169   8.234   2.548   9.432
23037SOL    HW181170   8.323   2.557   9.386
23037SOL    HW281171   8.218   2.452   9.454
23038SOL     OW81172   8.740   2.005   9.691
23038SOL    HW181173   8.656   1.987   9.743
23038SOL    HW281174   8.750   2.103   9.678
23039SOL     OW81175   7.419   2.034   9.412
23039SOL    HW181176   7.429   1.950   9.466
23039SOL    HW281177   7.499   2.092   9.425
23040SOL     OW81178   9.053   2.913   9.477
23040SOL    HW181179   9.151   2.937   9.475
23040SOL    HW281180   9.010   2.944   9.392
23041SOL     OW81181   8.497   1.997   9.816
23041SOL    HW181182   8.514   2.031   9.908
23041SOL    HW281183   8.448   1.910   9.821
23042SOL     OW81184   7.629   1.906   9.606
23042SOL    HW181185   7.702   1.963   9.644
23042SOL    HW281186   7.555   1.898   9.673
23043SOL     OW81187   7.466   2.942   9.419
23043SOL    HW181188   7.496   2.848   9.409
23043SOL    HW281189   7.518   3.001   9.357
23044SOL     OW81190   9.114   2.115   0.018
23044SOL    HW181191   9.063   2.116   0.104
23044SOL    HW281192   9.207   2.083   0.035
23045SOL     OW81193   8.591   2.468   9.545
23045SOL    HW181194   8.619   2.550   9.595
23045SOL    HW281195   8.555   2.494   9.456
23046SOL     OW81196   8.211   3.381   9.272
23046SOL    HW181197   8.170   3.440   9.342
23046SOL    HW281198   8.261   3.307   9.317
23047SOL     OW81199   8.109   3.018   9.938
23047SOL    HW181200   8.126   3.100   9.992
23047SOL    HW281201   8.128   2.937   9.993
23048SOL     OW81202   8.335   3.341   9.764
23048SOL    HW181203   8.391   3.361   9.684
23048SOL    HW281204   8.260   3.281   9.737
23049SOL     OW81205   7.896   2.768   9.589
23049SOL    HW181206   7.865   2.852   9.546
23049SOL    HW281207   7.819   2.722   9.633
23050SOL     OW81208   7.412   1.921   9.774
23050SOL    HW181209   7.321   1.908   9.813
23050SOL    HW281210   7.428   2.019   9.760
23051SOL     OW81211   7.827   3.359   9.885
23051SOL    HW181212   7.839   3.260   9.883
23051SOL    HW281213   7.730   3.381   9.885
23052SOL     OW81214   8.432   3.077   9.624
23052SOL    HW181215   8.512   3.105   9.677
23052SOL    HW281216   8.385   3.002   9.671
23053SOL     OW81217   9.015   2.333   9.891
23053SOL    HW181218   9.062   2.413   9.928
23053SOL    HW281219   9.048   2.251   9.937
23054SOL     OW81220   8.123   3.010   9.460
23054SOL    HW181221   8.197   3.067   9.425
23054SOL    HW281222   8.131   2.917   9.423
23055SOL     OW81223   8.187   1.939   9.258
23055SOL    HW181224   8.250   1.865   9.284
23055SOL    HW281225   8.231   2.027   9.274
23056SOL     OW81226   7.953   2.274   9.889
23056SOL    HW181227   8.025   2.210   9.915
23056SOL    HW281228   7.992   2.347   9.833
23057SOL     OW81229   7.611   3.099   9.251
23057SOL    HW181230   7.576   3.111   9.158
23057SOL    HW281231   7.665   3.179   9.276
23058SOL     OW81232   8.059   3.531   9.452
23058SOL    HW181233   7.997   3.600   9.414
23058SOL    HW281234   8.008   3.471   9.513
23059SOL     OW81235   7.438   2.724   9.772
23059SOL    HW181236   7.445   2.819   9.743
23059SOL    HW281237   7.350   2.709   9.817
23060SOL     OW81238   8.666   3.107   9.779
23060SOL    HW181239   8.715   3.065   9.856
23060SOL    HW281240   8.703   3.071   9.694
23061SOL     OW81241   8.087   2.068   9.661
23061SOL    HW181242   7.987   2.065   9.663
23061SOL    HW281243   8.121   2.074   9.755
23062SOL     OW81244   9.028   1.854   9.954
23062SOL    HW181245   9.007   1.851   9.857
23062SOL    HW281246   9.052   1.948   9.980
23063SOL     OW81247   8.733   2.371   9.896
23063SOL    HW181248   8.722   2.329   9.806
23063SOL    HW281249   8.829   2.364   9.924
23064SOL     OW81250   8.418   5.168   0.806
23064SOL    HW181251   8.513   5.196   0.817
23064SOL    HW281252   8.389   5.185   0.712
23065SOL     OW81253   9.145   5.005   0.617
23065SOL    HW181254   9.130   5.095   0.577
23065SOL    HW281255   9.206   4.951   0.558
23066SOL     OW81256   9.030   4.247   1.440
23066SOL    HW181257   9.002   4.157   1.474
23066SOL    HW281258   9.077   4.297   1.514
23067SOL     OW81259   7.780   3.908   0.007
23067SOL    HW181260   7.748   3.817   9.982
23067SOL    HW281261   7.797   3.962   9.925
23068SOL     OW81262   8.691   5.246   0.829
23068SOL    HW181263   8.707   5.343   0.849
23068SOL    HW281264   8.778   5.203   0.805
23069SOL     OW81265   8.333   4.574   1.686
23069SOL    HW181266   8.288   4.624   1.612
23069SOL    HW281267   8.293   4.601   1.773
23070SOL     OW81268   7.949   5.128   0.443
23070SOL    HW181269   7.896   5.165   0.520
23070SOL    HW281270   8.026   5.074   0.478
23071SOL     OW81271   7.967   3.724   0.131
23071SOL    HW181272   8.060   3.760   0.139
23071SOL    HW281273   7.907   3.794   0.093
23072SOL     OW81274   8.986   4.758   1.541
23072SOL    HW181275   8.894   4.780   1.507
23072SOL    HW281276   9.054   4.792   1.476
23073SOL     OW81277   8.875   4.758   1.202
23073SOL    HW181278   8.824   4.732   1.284
23073SOL    HW281279   8.896   4.856   1.205
23074SOL     OW81280   8.395   5.074   1.458
23074SOL    HW181281   8.318   5.138   1.452
23074SOL    HW281282   8.381   5.000   1.392
23075SOL     OW81283   7.821   4.909   0.702
23075SOL    HW181284   7.766   4.854   0.765
23075SOL    HW281285   7.916   4.912   0.733
23076SOL     OW81286   7.969   4.316   0.498
23076SOL    HW181287   7.949   4.408   0.464
23076SOL    HW281288   8.010   4.262   0.424
23077SOL     OW81289   7.793   5.064   0.221
23077SOL    HW181290   7.832   5.132   0.160
23077SOL    HW281291   7.828   5.079   0.314
23078SOL     OW81292   7.830   3.930   0.978
23078SOL    HW181293   7.858   4.026   0.969
23078SOL    HW281294   7.908   3.870   0.957
23079SOL     OW81295   7.641   4.511   0.481
23079SOL    HW181296   7.665   4.505   0.577
23079SOL    HW281297   7.546   4.541   0.472
23080SOL     OW81298   8.152   5.390   0.620
23080SOL    HW181299   8.225   5.328   0.591
23080SOL    HW281300   8.137   5.459   0.549
23081SOL     OW81301   9.100   5.246   0.501
23081SOL    HW181302   9.151   5.292   0.428
23081SOL    HW281303   9.002   5.254   0.484
23082SOL     OW81304   9.088   3.997   1.139
23082SOL    HW181305   9.112   4.094   1.151
23082SOL    HW281306   8.994   3.990   1.106
23083SOL     OW81307   8.496   4.100   0.317
23083SOL    HW181308   8.539   4.187   0.294
23083SOL    HW281309   8.548   4.056   0.391
23084SOL     OW81310   7.564   4.647   1.538
23084SOL    HW181311   7.645   4.698   1.565
23084SOL    HW281312   7.521   4.607   1.619
23085SOL     OW81313   7.818   4.384   0.040
23085SOL    HW181314   7.873   4.467   0.049
23085SOL    HW281315   7.876   4.309   0.009
23086SOL     OW81316   7.948   5.367   0.785
23086SOL    HW181317   8.027   5.379   0.726
23086SOL    HW281318   7.891   5.293   0.749
23087SOL     OW81319   8.947   5.144   0.801
23087SOL    HW181320   8.989   5.176   0.887
23087SOL    HW281321   9.014   5.094   0.748
23088SOL     OW81322   7.694   4.905   0.459
23088SOL    HW181323   7.738   4.906   0.549
23088SOL    HW281324   7.749   4.849   0.396
23089SOL     OW81325   8.503   3.905   0.101
23089SOL    HW181326   8.593   3.865   0.113
23089SOL    HW281327   8.493   3.985   0.160
23090SOL     OW81328   7.746   4.180   1.136
23090SOL    HW181329   7.742   4.096   1.190
23090SOL    HW281330   7.673   4.242   1.166
23091SOL     OW81331   8.872   4.455   1.331
23091SOL    HW181332   8.935   4.512   1.278
23091SOL    HW281333   8.923   4.380   1.373
23092SOL     OW81334   7.771   3.976   0.453
23092SOL    HW181335   7.718   4.013   0.529
23092SOL    HW281336   7.731   4.006   0.367
23093SOL     OW81337   8.949   5.449   1.334
23093SOL    HW181338   8.870   5.444   1.273
23093SOL    HW281339   9.033   5.443   1.280
23094SOL     OW81340   9.148   4.257   1.192
23094SOL    HW181341   9.239   4.299   1.196
23094SOL    HW281342   9.105   4.261   1.282
23095SOL     OW81343   9.187   5.439   1.181
23095SOL    HW181344   9.226   5.476   1.266
23095SOL    HW281345   9.259   5.418   1.116
23096SOL     OW81346   9.101   4.318   0.323
23096SOL    HW181347   9.071   4.226   0.299
23096SOL    HW281348   9.154   4.314   0.408
23097SOL     OW81349   8.429   5.529   0.160
23097SOL    HW181350   8.481   5.605   0.121
23097SOL    HW281351   8.480   5.490   0.236
23098SOL     OW81352   9.129   4.368   0.940
23098SOL    HW181353   9.069   4.448   0.943
23098SOL    HW281354   9.128   4.322   1.029
23099SOL     OW81355   8.501   5.009   1.711
23099SOL    HW181356   8.541   4.918   1.699
23099SOL    HW281357   8.460   5.039   1.624
23100SOL     OW81358   8.170   4.910   1.765
23100SOL    HW181359   8.091   4.971   1.766
23100SOL    HW281360   8.243   4.949   1.822
23101SOL     OW81361   8.790   3.657   0.808
23101SOL    HW181362   8.738   3.721   0.753
23101SOL    HW281363   8.887   3.677   0.800
23102SOL     OW81364   9.160   3.836   1.774
23102SOL    HW181365   9.145   3.865   1.869
23102SOL    HW281366   9.126   3.742   1.763
23103SOL     OW81367   7.373   4.329   0.545
23103SOL    HW181368   7.418   4.294   0.628
23103SOL    HW281369   7.379   4.429   0.544
23104SOL     OW81370   7.591   3.857   0.855
23104SOL    HW181371   7.668   3.893   0.907
23104SOL    HW281372   7.607   3.760   0.835
23105SOL     OW81373   7.742   3.911   1.237
23105SOL    HW181374   7.729   3.816   1.265
23105SOL    HW281375   7.775   3.914   1.143
23106SOL     OW81376   7.576   5.162   0.420
23106SOL    HW181377   7.622   5.073   0.418
23106SOL    HW281378   7.615   5.221   0.350
23107SOL     OW81379   8.888   5.038   1.253
23107SOL    HW181380   8.848   5.082   1.172
23107SOL    HW281381   8.823   5.044   1.329
23108SOL     OW81382   7.537   5.282   0.659
23108SOL    HW181383   7.440   5.292   0.681
23108SOL    HW281384   7.545   5.244   0.567
23109SOL     OW81385   9.152   5.090   1.283
23109SOL    HW181386   9.173   5.126   1.374
23109SOL    HW281387   9.054   5.072   1.275
23110SOL     OW81388   7.933   4.639   0.037
23110SOL    HW181389   7.894   4.682   9.956
23110SOL    HW281390   7.921   4.699   0.116
23111SOL     OW81391   8.322   4.869   1.288
23111SOL    HW181392   8.352   4.778   1.258
23111SOL    HW281393   8.244   4.899   1.233
23112SOL     OW81394   7.426   4.474   0.200
23112SOL    HW181395   7.508   4.423   0.223
23112SOL    HW281396   7.348   4.436   0.250
23113SOL     OW81397   8.895   4.498   0.331
23113SOL    HW181398   8.966   4.428   0.330
23113SOL    HW281399   8.923   4.576   0.276
23114SOL     OW81400   8.275   5.475   1.010
23114SOL    HW181401   8.347   5.447   1.074
23114SOL    HW281402   8.199   5.410   1.017
23115SOL     OW81403   8.140   4.480   9.942
23115SOL    HW181404   8.179   4.421   0.013
23115SOL    HW281405   8.073   4.542   9.983
23116SOL     OW81406   8.755   4.117   0.455
23116SOL    HW181407   8.733   4.198   0.401
23116SOL    HW281408   8.851   4.122   0.484
23117SOL     OW81409   7.600   4.007   1.457
23117SOL    HW181410   7.654   3.975   1.380
23117SOL    HW281411   7.503   3.992   1.438
23118SOL     OW81412   8.425   4.631   1.209
23118SOL    HW181413   8.427   4.579   1.123
23118SOL    HW281414   8.490   4.592   1.273
23119SOL     OW81415   9.032   4.077   0.506
23119SOL    HW181416   9.126   4.057   0.477
23119SOL    HW281417   9.031   4.098   0.603
23120SOL     OW81418   8.204   5.100   0.972
23120SOL    HW181419   8.289   5.119   0.923
23120SOL    HW281420   8.158   5.186   0.993
23121SOL     OW81421   8.225   4.077   0.272
23121SOL    HW181422   8.164   4.052   0.347
23121SOL    HW281423   8.318   4.087   0.306
23122SOL     OW81424   9.220   5.357   0.730
23122SOL    HW181425   9.148   5.416   0.766
23122SOL    HW281426   9.184   5.307   0.651
23123SOL     OW81427   8.239   5.333   1.639
23123SOL    HW181428   8.192   5.275   1.572
23123SOL    HW281429   8.234   5.290   1.729
23124SOL     OW81430   8.822   4.629   0.792
23124SOL    HW181431   8.880   4.616   0.873
23124SOL    HW281432   8.754   4.699   0.811
23125SOL     OW81433   7.678   4.772   0.886
23125SOL    HW181434   7.590   4.819   0.889
23125SOL    HW281435   7.714   4.761   0.979
23126SOL     OW81436   8.680   5.079   1.437
23126SOL    HW181437   8.722   5.164   1.470
23126SOL    HW281438   8.581   5.089   1.434
23127SOL     OW81439   7.442   4.032   0.416
23127SOL    HW181440   7.502   4.048   0.337
23127SOL    HW281441   7.495   4.045   0.501
23128SOL     OW81442   8.963   5.483   0.228
23128SOL    HW181443   9.053   5.451   0.258
23128SOL    HW281444   8.957   5.476   0.129
23129SOL     OW81445   7.467   5.573   1.412
23129SOL    HW181446   7.408   5.654   1.410
23129SOL    HW281447   7.452   5.523   1.496
23130SOL     OW81448   7.746   4.300   0.890
23130SOL    HW181449   7.817   4.260   0.832
23130SOL    HW281450   7.752   4.261   0.982
23131SOL     OW81451   7.660   5.365   0.249
23131SOL    HW181452   7.723   5.387   0.175
23131SOL    HW281453   7.666   5.436   0.319
23132SOL     OW81454   8.729   5.409   1.166
23132SOL    HW181455   8.747   5.455   1.079
23132SOL    HW281456   8.728   5.310   1.153
23133SOL     OW81457   7.436   4.895   0.943
23133SOL    HW181458   7.353   4.889   0.889
23133SOL    HW281459   7.430   4.831   1.021
23134SOL     OW81460   8.162   3.732   0.423
23134SOL    HW181461   8.200   3.732   0.330
23134SOL    HW281462   8.111   3.816   0.438
23135SOL     OW81463   7.422   4.855   0.445
23135SOL    HW181464   7.517   4.882   0.460
23135SOL    HW281465   7.412   4.821   0.351
23136SOL     OW81466   9.017   3.992   1.592
23136SOL    HW181467   8.972   4.059   1.651
23136SOL    HW281468   9.072   3.930   1.648
23137SOL     OW81469   8.745   3.779   0.166
23137SOL    HW181470   8.813   3.759   0.096
23137SOL    HW281471   8.693   3.696   0.186
23138SOL     OW81472   8.938   3.727   1.545
23138SOL    HW181473   8.936   3.693   1.451
23138SOL    HW281474   8.933   3.827   1.544
23139SOL     OW81475   8.099   3.955   0.721
23139SOL    HW181476   8.068   3.884   0.785
23139SOL    HW281477   8.197   3.968   0.730
23140SOL     OW81478   8.976   3.747   0.502
23140SOL    HW181479   9.005   3.727   0.408
23140SOL    HW281480   8.884   3.785   0.501
23141SOL     OW81481   7.975   5.107   1.793
23141SOL    HW181482   7.923   5.163   1.728
23141SOL    HW281483   8.051   5.161   1.829
23142SOL     OW81484   7.806   4.762   1.605
23142SOL    HW181485   7.857   4.801   1.529
23142SOL    HW281486   7.776   4.836   1.666
23143SOL     OW81487   7.526   5.098   1.109
23143SOL    HW181488   7.500   5.037   1.034
23143SOL    HW281489   7.450   5.107   1.173
23144SOL     OW81490   9.151   4.331   1.692
23144SOL    HW181491   9.160   4.415   1.638
23144SOL    HW281492   9.240   4.305   1.729
23145SOL     OW81493   8.944   4.174   1.774
23145SOL    HW181494   9.017   4.238   1.749
23145SOL    HW281495   8.915   4.192   1.868
23146SOL     OW81496   8.991   4.603   0.582
23146SOL    HW181497   8.950   4.571   0.497
23146SOL    HW281498   8.921   4.605   0.654
23147SOL     OW81499   9.158   4.539   1.521
23147SOL    HW181500   9.082   4.604   1.513
23147SOL    HW281501   9.245   4.587   1.516
23148SOL     OW81502   8.968   4.005   0.246
23148SOL    HW181503   8.984   4.020   0.343
23148SOL    HW281504   8.890   3.943   0.234
23149SOL     OW81505   8.131   5.198   1.418
23149SOL    HW181506   8.065   5.272   1.406
23149SOL    HW281507   8.114   5.127   1.349
23150SOL     OW81508   7.454   5.409   1.633
23150SOL    HW181509   7.540   5.428   1.680
23150SOL    HW281510   7.379   5.413   1.700
23151SOL     OW81511   7.585   4.040   0.648
23151SOL    HW181512   7.554   4.124   0.693
23151SOL    HW281513   7.589   3.965   0.715
23152SOL     OW81514   8.804   5.305   1.521
23152SOL    HW181515   8.735   5.365   1.560
23152SOL    HW281516   8.860   5.356   1.455
23153SOL     OW81517   7.653   4.324   0.251
23153SOL    HW181518   7.716   4.353   0.179
23153SOL    HW281519   7.673   4.374   0.335
23154SOL     OW81520   9.190   3.926   1.386
23154SOL    HW181521   9.121   3.955   1.453
23154SOL    HW281522   9.156   3.942   1.294
23155SOL     OW81523   7.680   5.448   0.827
23155SOL    HW181524   7.625   5.398   0.761
23155SOL    HW281525   7.777   5.435   0.806
23156SOL     OW81526   7.778   5.015   1.214
23156SOL    HW181527   7.770   5.032   1.312
23156SOL    HW281528   7.698   5.051   1.167
23157SOL     OW81529   8.626   5.240   1.813
23157SOL    HW181530   8.588   5.153   1.780
23157SOL    HW281531   8.610   5.311   1.745
23158SOL     OW81532   8.155   4.963   0.550
23158SOL    HW181533   8.202   4.880   0.521
23158SOL    HW281534   8.125   4.952   0.645
23159SOL     OW81535   7.675   4.528   0.753
23159SOL    HW181536   7.696   4.615   0.797
23159SOL    HW281537   7.718   4.454   0.805
23160SOL     OW81538   7.649   4.050   0.214
23160SOL    HW181539   7.704   4.017   0.138
23160SOL    HW281540   7.655   4.150   0.219
23161SOL     OW81541   7.490   4.255   0.788
23161SOL    HW181542   7.418   4.284   0.850
23161SOL    HW281543   7.580   4.277   0.827
23162SOL     OW81544   7.907   4.814   0.256
23162SOL    HW181545   8.002   4.835   0.281
23162SOL    HW281546   7.861   4.898   0.228
23163SOL     OW81547   8.531   4.309   0.017
23163SOL    HW181548   8.519   4.387   9.955
23163SOL    HW281549   8.613   4.259   9.991
23164SOL     OW81550   8.263   4.305   0.114
23164SOL    HW181551   8.361   4.302   0.095
23164SOL    HW281552   8.237   4.222   0.164
23165SOL     OW81553   8.730   3.847   0.442
23165SOL    HW181554   8.725   3.826   0.345
23165SOL    HW281555   8.734   3.946   0.454
23166SOL     OW81556   7.501   3.810   0.159
23166SOL    HW181557   7.550   3.724   0.170
23166SOL    HW281558   7.563   3.886   0.179
23167SOL     OW81559   7.760   4.747   1.148
23167SOL    HW181560   7.762   4.679   1.222
23167SOL    HW281561   7.775   4.838   1.186
23168SOL     OW81562   9.015   4.685   0.172
23168SOL    HW181563   9.103   4.728   0.192
23168SOL    HW281564   9.011   4.662   0.074
23169SOL     OW81565   8.213   4.769   1.531
23169SOL    HW181566   8.271   4.812   1.462
23169SOL    HW281567   8.205   4.829   1.610
23170SOL     OW81568   8.565   4.737   1.656
23170SOL    HW181569   8.484   4.681   1.672
23170SOL    HW281570   8.642   4.701   1.709
23171SOL     OW81571   8.600   5.444   1.633
23171SOL    HW181572   8.526   5.466   1.570
23171SOL    HW281573   8.626   5.526   1.684
23172SOL     OW81574   8.042   3.768   0.914
23172SOL    HW181575   8.011   3.682   0.873
23172SOL    HW281576   8.113   3.748   0.982
23173SOL     OW81577   7.705   5.508   1.289
23173SOL    HW181578   7.676   5.456   1.209
23173SOL    HW281579   7.625   5.531   1.345
23174SOL     OW81580   7.996   4.730   0.992
23174SOL    HW181581   8.031   4.636   0.994
23174SOL    HW281582   7.915   4.737   1.051
23175SOL     OW81583   7.474   4.713   1.146
23175SOL    HW181584   7.573   4.725   1.162
23175SOL    HW281585   7.460   4.638   1.081
23176SOL     OW81586   7.659   3.720   0.467
23176SOL    HW181587   7.712   3.805   0.475
23176SOL    HW281588   7.565   3.736   0.494
23177SOL     OW81589   8.057   4.419   1.741
23177SOL    HW181590   8.006   4.443   1.658
23177SOL    HW281591   8.153   4.405   1.718
23178SOL     OW81592   7.411   4.748   0.195
23178SOL    HW181593   7.426   4.649   0.188
23178SOL    HW281594   7.479   4.796   0.140
23179SOL     OW81595   9.208   3.921   0.895
23179SOL    HW181596   9.180   3.933   0.990
23179SOL    HW281597   9.308   3.915   0.891
23180SOL     OW81598   8.670   4.326   0.283
23180SOL    HW181599   8.739   4.395   0.304
23180SOL    HW281600   8.635   4.340   0.191
23181SOL     OW81601   8.951   5.152   1.692
23181SOL    HW181602   8.907   5.070   1.726
23181SOL    HW281603   8.890   5.200   1.630
23182SOL     OW81604   7.715   4.546   1.335
23182SOL    HW181605   7.794   4.509   1.383
23182SOL    HW281606   7.648   4.579   1.401
23183SOL     OW81607   8.023   5.061   0.017
23183SOL    HW181608   8.026   5.140   0.077
23183SOL    HW281609   8.091   5.072   9.944
23184SOL     OW81610   8.049   5.316   1.034
23184SOL    HW181611   8.003   5.331   0.947
23184SOL    HW281612   7.988   5.342   1.109
23185SOL     OW81613   8.072   4.920   0.810
23185SOL    HW181614   8.124   4.990   0.861
23185SOL    HW281615   8.049   4.845   0.872
23186SOL     OW81616   8.324   5.185   0.539
23186SOL    HW181617   8.379   5.183   0.455
23186SOL    HW281618   8.263   5.106   0.541
23187SOL     OW81619   7.470   4.523   0.948
23187SOL    HW181620   7.527   4.531   0.867
23187SOL    HW281621   7.381   4.485   0.923
23188SOL     OW81622   8.384   5.476   1.453
23188SOL    HW181623   8.342   5.418   1.522
23188SOL    HW281624   8.315   5.537   1.414
23189SOL     OW81625   8.579   4.920   1.165
23189SOL    HW181626   8.487   4.907   1.202
23189SOL    HW281627   8.634   4.838   1.183
23190SOL     OW81628   7.892   4.561   0.389
23190SOL    HW181629   7.897   4.646   0.338
23190SOL    HW281630   7.798   4.548   0.423
23191SOL     OW81631   9.011   4.628   0.992
23191SOL    HW181632   9.056   4.696   0.935
23191SOL    HW281633   8.969   4.673   1.071
23192SOL     OW81634   7.383   3.773   0.476
23192SOL    HW181635   7.286   3.762   0.498
23192SOL    HW281636   7.401   3.866   0.446
23193SOL     OW81637   7.838   5.279   1.617
23193SOL    HW181638   7.783   5.347   1.667
23193SOL    HW281639   7.882   5.324   1.539
23194SOL     OW81640   9.190   5.157   1.550
23194SOL    HW181641   9.234   5.244   1.575
23194SOL    HW281642   9.106   5.146   1.602
23195SOL     OW81643   7.793   5.178   0.673
23195SOL    HW181644   7.794   5.079   0.689
23195SOL    HW281645   7.698   5.210   0.669
23196SOL     OW81646   8.447   5.381   1.196
23196SOL    HW181647   8.427   5.395   1.294
23196SOL    HW281648   8.546   5.375   1.183
23197SOL     OW81649   7.691   5.474   1.760
23197SOL    HW181650   7.711   5.571   1.764
23197SOL    HW281651   7.721   5.429   1.844
23198SOL     OW81652   7.498   4.963   1.575
23198SOL    HW181653   7.462   4.884   1.526
23198SOL    HW281654   7.436   5.041   1.561
23199SOL     OW81655   7.598   5.367   1.077
23199SOL    HW181656   7.580   5.269   1.077
23199SOL    HW281657   7.624   5.396   0.985
23200SOL     OW81658   9.056   4.124   0.775
23200SOL    HW181659   9.073   4.212   0.819
23200SOL    HW281660   9.116   4.054   0.814
23201SOL     OW81661   8.226   3.830   0.156
23201SOL    HW181662   8.321   3.809   0.133
23201SOL    HW281663   8.221   3.922   0.195
23202SOL     OW81664   7.937   4.185   0.738
23202SOL    HW181665   7.993   4.102   0.733
23202SOL    HW281666   7.947   4.237   0.653
23203SOL     OW81667   7.981   4.814   1.396
23203SOL    HW181668   8.065   4.795   1.447
23203SOL    HW281669   7.999   4.885   1.328
23204SOL     OW81670   9.178   4.825   1.359
23204SOL    HW181671   9.175   4.921   1.331
23204SOL    HW281672   9.230   4.772   1.292
23205SOL     OW81673   7.582   4.946   0.083
23205SOL    HW181674   7.498   4.999   0.065
23205SOL    HW281675   7.639   4.996   0.148
23206SOL     OW81676   7.990   5.269   0.195
23206SOL    HW181677   7.982   5.369   0.192
23206SOL    HW281678   7.989   5.238   0.290
23207SOL     OW81679   8.733   4.814   1.450
23207SOL    HW181680   8.670   4.776   1.517
23207SOL    HW281681   8.716   4.912   1.440
23208SOL     OW81682   7.946   5.408   1.391
23208SOL    HW181683   8.013   5.482   1.386
23208SOL    HW281684   7.858   5.441   1.355
23209SOL     OW81685   9.058   5.226   1.043
23209SOL    HW181686   9.082   5.320   1.067
23209SOL    HW281687   9.091   5.164   1.113
23210SOL     OW81688   7.379   4.601   0.537
23210SOL    HW181689   7.398   4.697   0.513
23210SOL    HW281690   7.284   4.592   0.564
23211SOL     OW81691   7.939   4.534   1.516
23211SOL    HW181692   8.010   4.568   1.455
23211SOL    HW281693   7.889   4.611   1.555
23212SOL     OW81694   9.112   4.787   0.779
23212SOL    HW181695   9.116   4.874   0.729
23212SOL    HW281696   9.077   4.716   0.718
23213SOL     OW81697   8.062   5.014   1.207
23213SOL    HW181698   7.963   5.024   1.193
23213SOL    HW281699   8.110   5.039   1.123
23214SOL     OW81700   7.560   4.382   1.171
23214SOL    HW181701   7.615   4.439   1.232
23214SOL    HW281702   7.540   4.433   1.088
23215SOL     OW81703   7.739   5.060   1.476
23215SOL    HW181704   7.774   5.136   1.531
23215SOL    HW281705   7.653   5.027   1.515
23216SOL     OW81706   9.035   5.411   1.781
23216SOL    HW181707   9.002   5.318   1.765
23216SOL    HW281708   8.999   5.471   1.710
23217SOL     OW81709   8.044   3.983   0.458
23217SOL    HW181710   7.945   3.982   0.445
23217SOL    HW281711   8.065   3.976   0.556
23218SOL     OW81712   9.054   3.724   0.764
23218SOL    HW181713   9.031   3.752   0.671
23218SOL    HW281714   9.111   3.794   0.807
23219SOL     OW81715   8.612   4.525   1.375
23219SOL    HW181716   8.702   4.492   1.348
23219SOL    HW281717   8.613   4.549   1.473
23220SOL     OW81718   8.699   5.152   1.087
23220SOL    HW181719   8.646   5.070   1.110
23220SOL    HW281720   8.688   5.173   0.990
23221SOL     OW81721   8.511   5.138   2.599
23221SOL    HW181722   8.603   5.177   2.604
23221SOL    HW281723   8.470   5.161   2.511
23222SOL     OW81724   8.964   4.989   2.408
23222SOL    HW181725   8.984   5.044   2.488
23222SOL    HW281726   9.049   4.952   2.371
23223SOL     OW81727   9.035   4.234   3.280
23223SOL    HW181728   8.936   4.226   3.289
23223SOL    HW281729   9.075   4.257   3.369
23224SOL     OW81730   7.822   3.800   1.768
23224SOL    HW181731   7.755   3.874   1.763
23224SOL    HW281732   7.876   3.799   1.684
23225SOL     OW81733   8.764   5.242   2.641
23225SOL    HW181734   8.771   5.341   2.657
23225SOL    HW281735   8.855   5.205   2.623
23226SOL     OW81736   8.555   3.749   3.152
23226SOL    HW181737   8.487   3.706   3.210
23226SOL    HW281738   8.606   3.679   3.102
23227SOL     OW81739   8.350   4.578   3.567
23227SOL    HW181740   8.322   4.597   3.474
23227SOL    HW281741   8.271   4.583   3.628
23228SOL     OW81742   7.977   5.169   2.228
23228SOL    HW181743   7.904   5.174   2.296
23228SOL    HW281744   8.055   5.120   2.267
23229SOL     OW81745   7.934   3.691   2.009
23229SOL    HW181746   7.992   3.759   2.054
23229SOL    HW281747   7.897   3.729   1.924
23230SOL     OW81748   8.983   4.770   3.423
23230SOL    HW181749   8.893   4.793   3.386
23230SOL    HW281750   9.054   4.805   3.362
23231SOL     OW81751   8.840   4.757   3.064
23231SOL    HW181752   8.796   4.769   3.153
23231SOL    HW281753   8.902   4.834   3.048
23232SOL     OW81754   7.819   4.959   2.604
23232SOL    HW181755   7.735   4.922   2.644
23232SOL    HW281756   7.879   4.991   2.677
23233SOL     OW81757   8.126   4.367   2.411
23233SOL    HW181758   8.143   4.432   2.337
23233SOL    HW281759   8.115   4.275   2.374
23234SOL     OW81760   8.643   4.224   3.588
23234SOL    HW181761   8.735   4.201   3.618
23234SOL    HW281762   8.585   4.142   3.592
23235SOL     OW81763   7.843   5.037   2.030
23235SOL    HW181764   7.886   5.049   1.941
23235SOL    HW281765   7.898   5.084   2.100
23236SOL     OW81766   7.910   4.056   2.917
23236SOL    HW181767   7.958   4.134   2.958
23236SOL    HW281768   7.977   3.994   2.877
23237SOL     OW81769   9.170   5.304   2.233
23237SOL    HW181770   9.260   5.266   2.211
23237SOL    HW281771   9.140   5.364   2.158
23238SOL     OW81772   9.086   4.063   2.989
23238SOL    HW181773   9.124   4.153   3.009
23238SOL    HW281774   8.986   4.068   2.993
23239SOL     OW81775   8.497   3.990   2.336
23239SOL    HW181776   8.557   4.069   2.320
23239SOL    HW281777   8.502   3.963   2.432
23240SOL     OW81778   7.537   4.731   3.413
23240SOL    HW181779   7.536   4.827   3.386
23240SOL    HW281780   7.535   4.724   3.512
23241SOL     OW81781   7.990   4.521   1.987
23241SOL    HW181782   7.910   4.578   1.969
23241SOL    HW281783   8.006   4.461   1.909
23242SOL     OW81784   8.333   4.263   3.431
23242SOL    HW181785   8.379   4.189   3.479
23242SOL    HW281786   8.399   4.315   3.378
23243SOL     OW81787   9.022   5.134   2.639
23243SOL    HW181788   9.041   5.150   2.736
23243SOL    HW281789   9.077   5.195   2.583
23244SOL     OW81790   7.746   4.217   3.139
23244SOL    HW181791   7.737   4.117   3.131
23244SOL    HW281792   7.672   4.261   3.088
23245SOL     OW81793   8.776   4.490   3.184
23245SOL    HW181794   8.809   4.578   3.151
23245SOL    HW281795   8.835   4.459   3.259
23246SOL     OW81796   8.967   5.416   3.166
23246SOL    HW181797   8.898   5.409   3.094
23246SOL    HW281798   9.058   5.409   3.126
23247SOL     OW81799   9.177   4.318   3.068
23247SOL    HW181800   9.246   4.382   3.102
23247SOL    HW281801   9.119   4.289   3.144
23248SOL     OW81802   9.209   5.409   3.021
23248SOL    HW181803   9.241   5.456   3.104
23248SOL    HW281804   9.288   5.389   2.963
23249SOL     OW81805   8.303   4.198   2.581
23249SOL    HW181806   8.388   4.223   2.628
23249SOL    HW281807   8.294   4.252   2.498
23250SOL     OW81808   8.641   4.635   2.006
23250SOL    HW181809   8.655   4.583   2.091
23250SOL    HW281810   8.597   4.576   1.938
23251SOL     OW81811   8.437   4.025   3.572
23251SOL    HW181812   8.470   4.000   3.664
23251SOL    HW281813   8.349   3.980   3.556
23252SOL     OW81814   9.127   4.394   2.233
23252SOL    HW181815   9.083   4.306   2.251
23252SOL    HW281816   9.194   4.413   2.304
23253SOL     OW81817   8.344   5.507   2.122
23253SOL    HW181818   8.424   5.448   2.127
23253SOL    HW281819   8.261   5.450   2.117
23254SOL     OW81820   8.160   3.706   3.575
23254SOL    HW181821   8.184   3.613   3.546
23254SOL    HW281822   8.165   3.712   3.675
23255SOL     OW81823   9.117   4.378   2.803
23255SOL    HW181824   9.071   4.467   2.806
23255SOL    HW281825   9.139   4.349   2.896
23256SOL     OW81826   8.746   3.754   2.834
23256SOL    HW181827   8.706   3.845   2.821
23256SOL    HW281828   8.829   3.745   2.778
23257SOL     OW81829   9.132   3.910   3.653
23257SOL    HW181830   9.077   3.948   3.728
23257SOL    HW281831   9.175   3.825   3.684
23258SOL     OW81832   7.397   4.363   2.409
23258SOL    HW181833   7.427   4.305   2.485
23258SOL    HW281834   7.409   4.459   2.433
23259SOL     OW81835   7.743   3.938   3.103
23259SOL    HW181836   7.739   3.838   3.106
23259SOL    HW281837   7.801   3.967   3.027
23260SOL     OW81838   8.456   4.525   2.750
23260SOL    HW181839   8.363   4.535   2.715
23260SOL    HW281840   8.489   4.433   2.732
23261SOL     OW81841   7.645   5.186   2.173
23261SOL    HW181842   7.682   5.170   2.265
23261SOL    HW281843   7.701   5.136   2.106
23262SOL     OW81844   8.927   5.028   3.086
23262SOL    HW181845   8.901   5.067   2.998
23262SOL    HW281846   8.851   5.038   3.151
23263SOL     OW81847   9.189   5.088   3.146
23263SOL    HW181848   9.201   5.128   3.237
23263SOL    HW281849   9.092   5.074   3.128
23264SOL     OW81850   7.793   4.692   1.897
23264SOL    HW181851   7.807   4.664   1.802
23264SOL    HW281852   7.763   4.787   1.899
23265SOL     OW81853   8.382   4.775   3.069
23265SOL    HW181854   8.382   4.677   3.050
23265SOL    HW281855   8.304   4.818   3.025
23266SOL     OW81856   8.943   4.600   2.254
23266SOL    HW181857   9.009   4.525   2.252
23266SOL    HW281858   8.970   4.669   2.187
23267SOL     OW81859   8.201   4.672   1.901
23267SOL    HW181860   8.119   4.621   1.925
23267SOL    HW281861   8.175   4.755   1.852
23268SOL     OW81862   7.727   4.366   3.364
23268SOL    HW181863   7.736   4.301   3.289
23268SOL    HW281864   7.668   4.327   3.435
23269SOL     OW81865   7.550   3.984   3.298
23269SOL    HW181866   7.620   3.967   3.228
23269SOL    HW281867   7.460   3.961   3.262
23270SOL     OW81868   8.384   4.508   3.015
23270SOL    HW181869   8.430   4.522   2.928
23270SOL    HW281870   8.306   4.447   3.003
23271SOL     OW81871   9.028   4.155   2.324
23271SOL    HW181872   9.107   4.099   2.300
23271SOL    HW281873   9.023   4.165   2.423
23272SOL     OW81874   8.366   5.010   1.952
23272SOL    HW181875   8.414   4.986   2.036
23272SOL    HW281876   8.430   5.011   1.876
23273SOL     OW81877   9.160   5.319   2.502
23273SOL    HW181878   9.125   5.407   2.533
23273SOL    HW281879   9.156   5.315   2.402
23274SOL     OW81880   8.553   4.600   2.418
23274SOL    HW181881   8.590   4.641   2.501
23274SOL    HW281882   8.470   4.650   2.390
23275SOL     OW81883   8.652   4.692   2.661
23275SOL    HW181884   8.583   4.631   2.698
23275SOL    HW281885   8.653   4.777   2.714
23276SOL     OW81886   7.613   4.851   2.736
23276SOL    HW181887   7.516   4.876   2.734
23276SOL    HW281888   7.634   4.805   2.822
23277SOL     OW81889   8.323   4.728   2.345
23277SOL    HW181890   8.255   4.670   2.300
23277SOL    HW281891   8.281   4.772   2.425
23278SOL     OW81892   8.689   5.070   3.226
23278SOL    HW181893   8.725   5.147   3.278
23278SOL    HW281894   8.609   5.100   3.174
23279SOL     OW81895   9.089   5.493   2.044
23279SOL    HW181896   9.175   5.543   2.036
23279SOL    HW281897   9.061   5.460   1.953
23280SOL     OW81898   8.153   4.418   3.283
23280SOL    HW181899   8.199   4.507   3.278
23280SOL    HW281900   8.211   4.353   3.331
23281SOL     OW81901   7.352   5.544   3.233
23281SOL    HW181902   7.337   5.642   3.244
23281SOL    HW281903   7.377   5.503   3.321
23282SOL     OW81904   8.173   4.538   2.195
23282SOL    HW181905   8.098   4.529   2.129
23282SOL    HW281906   8.261   4.528   2.147
23283SOL     OW81907   7.715   4.217   2.780
23283SOL    HW181908   7.775   4.260   2.712
23283SOL    HW281909   7.768   4.151   2.834
23284SOL     OW81910   7.810   5.392   1.987
23284SOL    HW181911   7.875   5.466   1.972
23284SOL    HW281912   7.784   5.389   2.084
23285SOL     OW81913   8.795   5.384   2.958
23285SOL    HW181914   8.805   5.432   2.871
23285SOL    HW281915   8.785   5.286   2.941
23286SOL     OW81916   7.344   4.901   2.782
23286SOL    HW181917   7.271   4.888   2.714
23286SOL    HW281918   7.350   4.819   2.840
23287SOL     OW81919   8.246   3.869   2.309
23287SOL    HW181920   8.341   3.898   2.305
23287SOL    HW281921   8.187   3.949   2.316
23288SOL     OW81922   7.508   4.768   2.287
23288SOL    HW181923   7.576   4.840   2.303
23288SOL    HW281924   7.544   4.703   2.220
23289SOL     OW81925   8.972   3.969   3.433
23289SOL    HW181926   8.921   4.054   3.444
23289SOL    HW281927   9.029   3.954   3.514
23290SOL     OW81928   8.683   4.018   2.781
23290SOL    HW181929   8.719   4.070   2.704
23290SOL    HW281930   8.735   4.039   2.864
23291SOL     OW81931   8.974   3.694   3.417
23291SOL    HW181932   8.961   3.658   3.325
23291SOL    HW281933   8.963   3.794   3.416
23292SOL     OW81934   8.072   4.066   2.622
23292SOL    HW181935   8.075   3.989   2.686
23292SOL    HW281936   8.162   4.110   2.618
23293SOL     OW81937   8.681   4.328   2.988
23293SOL    HW181938   8.690   4.377   2.901
23293SOL    HW281939   8.714   4.385   3.062
23294SOL     OW81940   7.462   5.028   3.004
23294SOL    HW181941   7.434   5.005   2.911
23294SOL    HW281942   7.385   5.016   3.067
23295SOL     OW81943   8.534   4.270   2.713
23295SOL    HW181944   8.614   4.246   2.658
23295SOL    HW281945   8.524   4.204   2.788
23296SOL     OW81946   9.114   4.307   3.546
23296SOL    HW181947   9.101   4.392   3.495
23296SOL    HW281948   9.210   4.300   3.575
23297SOL     OW81949   8.811   4.086   3.014
23297SOL    HW181950   8.769   4.177   3.014
23297SOL    HW281951   8.780   4.036   3.095
23298SOL     OW81952   8.901   4.162   3.652
23298SOL    HW181953   8.977   4.218   3.618
23298SOL    HW281954   8.931   4.111   3.733
23299SOL     OW81955   8.699   4.477   2.232
23299SOL    HW181956   8.639   4.517   2.301
23299SOL    HW281957   8.790   4.517   2.239
23300SOL     OW81958   8.901   4.677   2.525
23300SOL    HW181959   8.897   4.657   2.428
23300SOL    HW281960   8.809   4.673   2.564
23301SOL     OW81961   9.092   4.519   3.379
23301SOL    HW181962   9.054   4.611   3.389
23301SOL    HW281963   9.172   4.522   3.319
23302SOL     OW81964   7.539   3.986   3.566
23302SOL    HW181965   7.544   3.983   3.466
23302SOL    HW281966   7.447   3.961   3.595
23303SOL     OW81967   7.402   5.415   3.478
23303SOL    HW181968   7.486   5.448   3.521
23303SOL    HW281969   7.333   5.398   3.548
23304SOL     OW81970   8.801   5.278   3.353
23304SOL    HW181971   8.739   5.334   3.408
23304SOL    HW281972   8.858   5.337   3.296
23305SOL     OW81973   9.158   3.941   3.228
23305SOL    HW181974   9.086   3.963   3.294
23305SOL    HW281975   9.132   3.975   3.138
23306SOL     OW81976   7.737   5.021   3.038
23306SOL    HW181977   7.760   5.069   3.123
23306SOL    HW281978   7.642   5.038   3.014
23307SOL     OW81979   8.576   5.305   3.774
23307SOL    HW181980   8.547   5.211   3.789
23307SOL    HW281981   8.592   5.320   3.676
23308SOL     OW81982   8.181   5.020   2.331
23308SOL    HW181983   8.181   4.955   2.255
23308SOL    HW281984   8.188   4.970   2.417
23309SOL     OW81985   7.778   4.539   2.657
23309SOL    HW181986   7.802   4.607   2.587
23309SOL    HW281987   7.829   4.455   2.639
23310SOL     OW81988   7.457   4.266   2.670
23310SOL    HW181989   7.460   4.363   2.694
23310SOL    HW281990   7.539   4.220   2.706
23311SOL     OW81991   8.545   4.464   1.818
23311SOL    HW181992   8.464   4.481   1.763
23311SOL    HW281993   8.625   4.454   1.758
23312SOL     OW81994   8.770   3.851   2.470
23312SOL    HW181995   8.680   3.854   2.513
23312SOL    HW281996   8.760   3.857   2.371
23313SOL     OW81997   8.774   4.207   3.340
23313SOL    HW181998   8.719   4.236   3.419
23313SOL    HW281999   8.732   4.126   3.299
23314SOL     OW82000   7.646   4.759   3.002
23314SOL    HW182001   7.665   4.694   3.075
23314SOL    HW282002   7.694   4.845   3.020
23315SOL     OW82003   9.055   4.745   2.045
23315SOL    HW182004   9.152   4.763   2.058
23315SOL    HW282005   9.036   4.734   1.947
23316SOL     OW82006   8.010   4.280   3.079
23316SOL    HW182007   8.056   4.333   3.151
23316SOL    HW282008   7.914   4.269   3.103
23317SOL     OW82009   8.272   4.666   3.313
23317SOL    HW182010   8.338   4.698   3.245
23317SOL    HW282011   8.208   4.740   3.334
23318SOL     OW82012   8.583   4.696   3.487
23318SOL    HW182013   8.496   4.656   3.518
23318SOL    HW282014   8.658   4.637   3.514
23319SOL     OW82015   8.521   3.896   2.596
23319SOL    HW182016   8.573   3.944   2.666
23319SOL    HW282017   8.445   3.847   2.638
23320SOL     OW82018   8.611   5.402   3.508
23320SOL    HW182019   8.521   5.418   3.466
23320SOL    HW282020   8.645   5.487   3.547
23321SOL     OW82021   8.097   3.874   2.822
23321SOL    HW182022   8.059   3.783   2.838
23321SOL    HW282023   8.197   3.869   2.825
23322SOL     OW82024   8.400   4.946   2.749
23322SOL    HW182025   8.433   5.022   2.693
23322SOL    HW282026   8.473   4.913   2.807
23323SOL     OW82027   8.056   4.706   2.735
23323SOL    HW182028   8.104   4.621   2.714
23323SOL    HW282029   7.958   4.692   2.727
23324SOL     OW82030   7.388   4.683   2.940
23324SOL    HW182031   7.473   4.717   2.978
23324SOL    HW282032   7.408   4.612   2.871
23325SOL     OW82033   8.079   4.291   3.588
23325SOL    HW182034   8.039   4.374   3.549
23325SOL    HW282035   8.173   4.280   3.555
23326SOL     OW82036   9.145   3.977   2.734
23326SOL    HW182037   9.127   3.999   2.830
23326SOL    HW282038   9.242   3.955   2.722
23327SOL     OW82039   8.183   4.880   2.906
23327SOL    HW182040   8.130   4.814   2.853
23327SOL    HW282041   8.255   4.919   2.849
23328SOL     OW82042   8.695   4.205   2.306
23328SOL    HW182043   8.681   4.298   2.275
23328SOL    HW282044   8.784   4.172   2.273
23329SOL     OW82045   8.960   5.153   3.537
23329SOL    HW182046   8.919   5.072   3.579
23329SOL    HW282047   8.897   5.191   3.469
23330SOL     OW82048   7.641   4.577   3.211
23330SOL    HW182049   7.681   4.500   3.259
23330SOL    HW282050   7.602   4.641   3.277
23331SOL     OW82051   8.203   5.225   1.890
23331SOL    HW182052   8.176   5.283   1.967
23331SOL    HW282053   8.271   5.158   1.921
23332SOL     OW82054   8.212   4.858   2.558
23332SOL    HW182055   8.283   4.894   2.619
23332SOL    HW282056   8.142   4.812   2.612
23333SOL     OW82057   8.398   5.197   2.360
23333SOL    HW182058   8.446   5.216   2.274
23333SOL    HW282059   8.321   5.135   2.342
23334SOL     OW82060   7.507   4.535   2.723
23334SOL    HW182061   7.606   4.542   2.713
23334SOL    HW282062   7.462   4.577   2.644
23335SOL     OW82063   7.462   4.642   3.677
23335SOL    HW182064   7.393   4.621   3.607
23335SOL    HW282065   7.468   4.566   3.742
23336SOL     OW82066   8.607   4.862   2.927
23336SOL    HW182067   8.530   4.838   2.986
23336SOL    HW282068   8.691   4.820   2.962
23337SOL     OW82069   7.963   4.044   3.605
23337SOL    HW182070   8.015   3.990   3.539
23337SOL    HW282071   8.001   4.136   3.610
23338SOL     OW82072   9.003   4.627   2.870
23338SOL    HW182073   9.009   4.699   2.801
23338SOL    HW282074   8.935   4.652   2.938
23339SOL     OW82075   8.707   3.958   3.239
23339SOL    HW182076   8.742   3.924   3.326
23339SOL    HW282077   8.647   3.889   3.198
23340SOL     OW82078   8.669   3.867   3.517
23340SOL    HW182079   8.717   3.881   3.603
23340SOL    HW282080   8.583   3.918   3.518
23341SOL     OW82081   7.778   5.382   3.423
23341SOL    HW182082   7.721   5.427   3.492
23341SOL    HW282083   7.843   5.448   3.386
23342SOL     OW82084   9.203   5.160   3.411
23342SOL    HW182085   9.243   5.249   3.431
23342SOL    HW282086   9.115   5.152   3.457
23343SOL     OW82087   8.440   4.189   2.991
23343SOL    HW182088   8.522   4.247   2.997
23343SOL    HW282089   8.437   4.128   3.070
23344SOL     OW82090   7.775   5.159   2.416
23344SOL    HW182091   7.789   5.078   2.473
23344SOL    HW282092   7.765   5.239   2.475
23345SOL     OW82093   7.628   5.517   3.613
23345SOL    HW182094   7.643   5.616   3.616
23345SOL    HW282095   7.653   5.477   3.701
23346SOL     OW82096   7.526   4.987   3.324
23346SOL    HW182097   7.520   4.980   3.224
23346SOL    HW282098   7.453   5.047   3.357
23347SOL     OW82099   8.368   3.813   2.842
23347SOL    HW182100   8.444   3.847   2.898
23347SOL    HW282101   8.350   3.718   2.865
23348SOL     OW82102   8.462   4.926   2.194
23348SOL    HW182103   8.547   4.948   2.243
23348SOL    HW282104   8.413   4.854   2.243
23349SOL     OW82105   9.025   4.189   2.605
23349SOL    HW182106   9.052   4.267   2.661
23349SOL    HW282107   9.067   4.106   2.641
23350SOL     OW82108   8.173   4.869   2.103
23350SOL    HW182109   8.237   4.933   2.060
23350SOL    HW282110   8.183   4.779   2.061
23351SOL     OW82111   7.921   4.301   2.598
23351SOL    HW182112   7.961   4.212   2.623
23351SOL    HW282113   7.977   4.344   2.528
23352SOL     OW82114   9.173   4.833   3.242
23352SOL    HW182115   9.190   4.926   3.210
23352SOL    HW282116   9.197   4.768   3.170
23353SOL     OW82117   7.687   4.935   1.782
23353SOL    HW182118   7.608   4.953   1.723
23353SOL    HW282119   7.696   5.009   1.849
23354SOL     OW82120   8.106   5.377   2.098
23354SOL    HW182121   8.044   5.447   2.062
23354SOL    HW282122   8.053   5.308   2.148
23355SOL     OW82123   8.738   4.817   3.305
23355SOL    HW182124   8.674   4.776   3.370
23355SOL    HW282125   8.711   4.911   3.286
23356SOL     OW82126   7.592   4.254   3.580
23356SOL    HW182127   7.582   4.155   3.579
23356SOL    HW282128   7.672   4.279   3.635
23357SOL     OW82129   9.092   5.194   2.891
23357SOL    HW182130   9.116   5.284   2.926
23357SOL    HW282131   9.138   5.124   2.945
23358SOL     OW82132   7.391   4.627   2.491
23358SOL    HW182133   7.434   4.686   2.423
23358SOL    HW282134   7.292   4.634   2.484
23359SOL     OW82135   7.948   4.496   3.455
23359SOL    HW182136   7.863   4.454   3.423
23359SOL    HW282137   8.018   4.485   3.385
23360SOL     OW82138   9.006   4.856   2.707
23360SOL    HW182139   9.004   4.953   2.683
23360SOL    HW282140   8.968   4.803   2.632
23361SOL     OW82141   8.211   4.319   2.895
23361SOL    HW182142   8.286   4.257   2.918
23361SOL    HW282143   8.133   4.300   2.955
23362SOL     OW82144   7.941   5.024   2.844
23362SOL    HW182145   7.870   5.027   2.914
23362SOL    HW282146   8.026   4.989   2.883
23363SOL     OW82147   7.555   4.381   3.019
23363SOL    HW182148   7.580   4.463   3.072
23363SOL    HW282149   7.587   4.391   2.925
23364SOL     OW82150   7.749   5.144   3.283
23364SOL    HW182151   7.762   5.228   3.336
23364SOL    HW282152   7.675   5.091   3.323
23365SOL     OW82153   9.036   5.404   3.633
23365SOL    HW182154   9.010   5.308   3.618
23365SOL    HW282155   9.006   5.459   3.555
23366SOL     OW82156   8.713   4.957   2.304
23366SOL    HW182157   8.799   4.968   2.354
23366SOL    HW282158   8.733   4.914   2.215
23367SOL     OW82159   8.075   4.098   2.351
23367SOL    HW182160   7.987   4.078   2.309
23367SOL    HW282161   8.072   4.077   2.448
23368SOL     OW82162   8.956   3.785   2.666
23368SOL    HW182163   8.901   3.810   2.586
23368SOL    HW282164   9.027   3.854   2.680
23369SOL     OW82165   8.499   4.403   3.255
23369SOL    HW182166   8.595   4.428   3.259
23369SOL    HW282167   8.457   4.442   3.173
23370SOL     OW82168   8.191   4.479   2.669
23370SOL    HW182169   8.191   4.411   2.742
23370SOL    HW282170   8.173   4.435   2.582
23371SOL     OW82171   8.754   5.109   2.882
23371SOL    HW182172   8.694   5.029   2.890
23371SOL    HW282173   8.749   5.146   2.790
23372SOL     OW82174   8.752   4.185   2.575
23372SOL    HW182175   8.726   4.190   2.479
23372SOL    HW282176   8.852   4.190   2.583
23373SOL     OW82177   8.474   5.159   4.481
23373SOL    HW182178   8.568   5.192   4.478
23373SOL    HW282179   8.424   5.193   4.401
23374SOL     OW82180   9.003   4.987   4.261
23374SOL    HW182181   9.014   5.046   4.341
23374SOL    HW282182   9.088   4.937   4.245
23375SOL     OW82183   9.012   4.357   5.070
23375SOL    HW182184   8.946   4.305   5.124
23375SOL    HW282185   9.067   4.414   5.130
23376SOL     OW82186   7.757   3.894   3.693
23376SOL    HW182187   7.676   3.922   3.642
23376SOL    HW282188   7.835   3.949   3.664
23377SOL     OW82189   8.738   5.249   4.525
23377SOL    HW182190   8.750   5.347   4.542
23377SOL    HW282191   8.826   5.208   4.499
23378SOL     OW82192   8.587   3.765   5.033
23378SOL    HW182193   8.510   3.721   5.079
23378SOL    HW282194   8.623   3.704   4.963
23379SOL     OW82195   8.346   4.611   5.408
23379SOL    HW182196   8.336   4.544   5.334
23379SOL    HW282197   8.269   4.676   5.404
23380SOL     OW82198   7.919   3.715   3.830
23380SOL    HW182199   8.013   3.749   3.839
23380SOL    HW282200   7.864   3.782   3.781
23381SOL     OW82201   8.975   4.756   5.219
23381SOL    HW182202   8.878   4.772   5.198
23381SOL    HW282203   9.031   4.783   5.141
23382SOL     OW82204   8.851   4.741   4.906
23382SOL    HW182205   8.791   4.770   4.981
23382SOL    HW282206   8.943   4.774   4.923
23383SOL     OW82207   8.370   5.085   5.153
23383SOL    HW182208   8.289   5.143   5.154
23383SOL    HW282209   8.352   5.004   5.096
23384SOL     OW82210   8.137   4.308   4.245
23384SOL    HW182211   8.138   4.385   4.182
23384SOL    HW282212   8.087   4.232   4.204
23385SOL     OW82213   8.668   4.257   5.432
23385SOL    HW182214   8.762   4.241   5.463
23385SOL    HW282215   8.610   4.182   5.463
23386SOL     OW82216   7.870   3.936   4.694
23386SOL    HW182217   7.899   4.028   4.668
23386SOL    HW282218   7.934   3.869   4.656
23387SOL     OW82219   7.726   4.437   4.134
23387SOL    HW182220   7.787   4.426   4.213
23387SOL    HW282221   7.632   4.450   4.167
23388SOL     OW82222   8.080   5.420   4.257
23388SOL    HW182223   8.159   5.358   4.261
23388SOL    HW282224   8.091   5.483   4.180
23389SOL     OW82225   9.147   5.316   4.087
23389SOL    HW182226   9.239   5.283   4.065
23389SOL    HW282227   9.110   5.366   4.009
23390SOL     OW82228   9.068   4.006   4.799
23390SOL    HW182229   9.106   4.097   4.818
23390SOL    HW282230   8.968   4.012   4.797
23391SOL     OW82231   8.462   4.061   4.034
23391SOL    HW182232   8.511   4.148   4.039
23391SOL    HW282233   8.475   4.011   4.120
23392SOL     OW82234   7.822   4.339   3.716
23392SOL    HW182235   7.824   4.439   3.708
23392SOL    HW282236   7.912   4.303   3.690
23393SOL     OW82237   8.368   4.394   5.237
23393SOL    HW182238   8.398   4.312   5.285
23393SOL    HW282239   8.441   4.424   5.175
23394SOL     OW82240   9.004   5.147   4.494
23394SOL    HW182241   9.018   5.167   4.592
23394SOL    HW282242   9.059   5.210   4.439
23395SOL     OW82243   8.564   3.962   3.800
23395SOL    HW182244   8.637   3.897   3.824
23395SOL    HW282245   8.523   3.998   3.884
23396SOL     OW82246   7.600   4.147   4.893
23396SOL    HW182247   7.633   4.052   4.886
23396SOL    HW282248   7.598   4.174   4.989
23397SOL     OW82249   8.801   4.476   4.943
23397SOL    HW182250   8.818   4.573   4.929
23397SOL    HW282251   8.880   4.434   4.987
23398SOL     OW82252   7.766   3.976   4.150
23398SOL    HW182253   7.710   4.018   4.221
23398SOL    HW282254   7.718   3.979   4.062
23399SOL     OW82255   8.939   5.445   5.005
23399SOL    HW182256   8.859   5.457   4.946
23399SOL    HW282257   9.021   5.436   4.948
23400SOL     OW82258   9.151   4.259   4.857
23400SOL    HW182259   9.240   4.304   4.856
23400SOL    HW282260   9.098   4.292   4.935
23401SOL     OW82261   9.188   5.433   4.852
23401SOL    HW182262   9.221   5.469   4.939
23401SOL    HW282263   9.266   5.420   4.790
23402SOL     OW82264   8.337   4.148   4.346
23402SOL    HW182265   8.407   4.197   4.397
23402SOL    HW282266   8.272   4.214   4.307
23403SOL     OW82267   8.639   4.683   3.829
23403SOL    HW182268   8.643   4.628   3.913
23403SOL    HW282269   8.585   4.635   3.760
23404SOL     OW82270   8.507   4.059   5.524
23404SOL    HW182271   8.510   4.055   5.624
23404SOL    HW282272   8.426   4.009   5.491
23405SOL     OW82273   9.110   4.381   4.075
23405SOL    HW182274   9.071   4.289   4.077
23405SOL    HW282275   9.170   4.394   4.154
23406SOL     OW82276   8.408   5.511   3.873
23406SOL    HW182277   8.465   5.441   3.829
23406SOL    HW282278   8.401   5.490   3.971
23407SOL     OW82279   8.158   3.748   5.449
23407SOL    HW182280   8.174   3.659   5.406
23407SOL    HW282281   8.235   3.771   5.508
23408SOL     OW82282   9.087   4.349   4.606
23408SOL    HW182283   9.059   4.445   4.613
23408SOL    HW282284   9.100   4.311   4.698
23409SOL     OW82285   8.462   5.031   5.419
23409SOL    HW182286   8.510   4.943   5.409
23409SOL    HW282287   8.419   5.056   5.332
23410SOL     OW82288   8.137   4.801   5.424
23410SOL    HW182289   8.103   4.895   5.425
23410SOL    HW282290   8.122   4.760   5.514
23411SOL     OW82291   8.790   3.653   4.581
23411SOL    HW182292   8.746   3.742   4.587
23411SOL    HW282293   8.878   3.662   4.534
23412SOL     OW82294   9.110   3.909   5.474
23412SOL    HW182295   9.078   3.956   5.557
23412SOL    HW282296   9.100   3.810   5.485
23413SOL     OW82297   7.475   4.455   4.240
23413SOL    HW182298   7.480   4.402   4.324
23413SOL    HW282299   7.432   4.544   4.259
23414SOL     OW82300   7.648   3.884   4.517
23414SOL    HW182301   7.711   3.915   4.589
23414SOL    HW282302   7.683   3.800   4.476
23415SOL     OW82303   7.716   3.893   4.914
23415SOL    HW182304   7.707   3.795   4.931
23415SOL    HW282305   7.776   3.908   4.836
23416SOL     OW82306   8.400   4.616   4.612
23416SOL    HW182307   8.394   4.712   4.586
23416SOL    HW282308   8.338   4.562   4.556
23417SOL     OW82309   8.870   5.067   4.964
23417SOL    HW182310   8.828   5.087   4.876
23417SOL    HW282311   8.800   5.067   5.035
23418SOL     OW82312   7.618   5.441   4.422
23418SOL    HW182313   7.559   5.505   4.373
23418SOL    HW282314   7.604   5.348   4.387
23419SOL     OW82315   9.138   5.083   4.983
23419SOL    HW182316   9.170   5.112   5.072
23419SOL    HW282317   9.038   5.081   4.983
23420SOL     OW82318   7.848   4.615   3.686
23420SOL    HW182319   7.896   4.588   3.602
23420SOL    HW282320   7.789   4.693   3.667
23421SOL     OW82321   8.310   4.869   4.984
23421SOL    HW182322   8.356   4.783   4.961
23421SOL    HW282323   8.272   4.910   4.902
23422SOL     OW82324   7.457   4.450   3.874
23422SOL    HW182325   7.526   4.378   3.882
23422SOL    HW282326   7.378   4.427   3.930
23423SOL     OW82327   8.940   4.600   4.113
23423SOL    HW182328   8.997   4.518   4.104
23423SOL    HW282329   8.972   4.670   4.049
23424SOL     OW82330   8.288   5.492   4.701
23424SOL    HW182331   8.298   5.393   4.690
23424SOL    HW282332   8.279   5.514   4.798
23425SOL     OW82333   8.141   4.565   3.737
23425SOL    HW182334   8.166   4.482   3.788
23425SOL    HW282335   8.054   4.600   3.771
23426SOL     OW82336   8.764   4.120   4.126
23426SOL    HW182337   8.717   4.188   4.069
23426SOL    HW282338   8.863   4.135   4.121
23427SOL     OW82339   7.555   3.967   5.131
23427SOL    HW182340   7.623   3.937   5.064
23427SOL    HW282341   7.463   3.949   5.095
23428SOL     OW82342   8.381   4.616   4.890
23428SOL    HW182343   8.393   4.609   4.791
23428SOL    HW282344   8.304   4.560   4.918
23429SOL     OW82345   9.041   4.119   4.145
23429SOL    HW182346   9.133   4.085   4.127
23429SOL    HW282347   9.027   4.130   4.243
23430SOL     OW82348   8.333   5.218   4.703
23430SOL    HW182349   8.385   5.201   4.620
23430SOL    HW282350   8.270   5.142   4.719
23431SOL     OW82351   8.209   4.065   3.939
23431SOL    HW182352   8.142   4.060   4.013
23431SOL    HW282353   8.301   4.063   3.978
23432SOL     OW82354   8.513   5.043   3.833
23432SOL    HW182355   8.499   5.008   3.926
23432SOL    HW282356   8.523   4.967   3.770
23433SOL     OW82357   9.152   5.327   4.358
23433SOL    HW182358   9.115   5.414   4.392
23433SOL    HW282359   9.146   5.324   4.258
23434SOL     OW82360   8.519   4.681   4.245
23434SOL    HW182361   8.570   4.688   4.331
23434SOL    HW282362   8.421   4.675   4.266
23435SOL     OW82363   8.241   5.339   5.365
23435SOL    HW182364   8.189   5.287   5.296
23435SOL    HW282365   8.230   5.295   5.454
23436SOL     OW82366   8.654   4.670   4.494
23436SOL    HW182367   8.580   4.615   4.533
23436SOL    HW282368   8.680   4.742   4.558
23437SOL     OW82369   8.246   4.669   4.289
23437SOL    HW182370   8.210   4.632   4.203
23437SOL    HW282371   8.228   4.605   4.363
23438SOL     OW82372   8.650   5.078   5.134
23438SOL    HW182373   8.693   5.163   5.164
23438SOL    HW282374   8.551   5.085   5.142
23439SOL     OW82375   7.430   4.039   4.114
23439SOL    HW182376   7.489   4.031   4.034
23439SOL    HW282377   7.484   4.060   4.195
23440SOL     OW82378   9.047   5.498   3.891
23440SOL    HW182379   9.137   5.541   3.892
23440SOL    HW282380   9.033   5.452   3.803
23441SOL     OW82381   8.182   4.486   5.056
23441SOL    HW182382   8.153   4.575   5.091
23441SOL    HW282383   8.246   4.444   5.121
23442SOL     OW82384   7.461   5.526   5.090
23442SOL    HW182385   7.410   5.612   5.084
23442SOL    HW282386   7.452   5.487   5.181
23443SOL     OW82387   8.146   4.519   4.073
23443SOL    HW182388   8.059   4.550   4.034
23443SOL    HW282389   8.197   4.468   4.004
23444SOL     OW82390   7.677   4.206   4.631
23444SOL    HW182391   7.776   4.201   4.617
23444SOL    HW282392   7.657   4.189   4.728
23445SOL     OW82393   7.712   5.465   3.871
23445SOL    HW182394   7.803   5.435   3.842
23445SOL    HW282395   7.716   5.498   3.965
23446SOL     OW82396   8.713   5.466   4.851
23446SOL    HW182397   8.741   5.477   4.755
23446SOL    HW282398   8.643   5.395   4.857
23447SOL     OW82399   8.115   3.759   4.127
23447SOL    HW182400   8.138   3.750   4.030
23447SOL    HW282401   8.086   3.853   4.146
23448SOL     OW82402   7.354   4.927   4.126
23448SOL    HW182403   7.390   5.020   4.115
23448SOL    HW282404   7.392   4.868   4.054
23449SOL     OW82405   8.968   3.988   5.249
23449SOL    HW182406   8.930   4.080   5.250
23449SOL    HW282407   9.020   3.973   5.333
23450SOL     OW82408   8.693   3.911   4.600
23450SOL    HW182409   8.709   3.972   4.523
23450SOL    HW282410   8.730   3.951   4.684
23451SOL     OW82411   8.770   3.795   3.883
23451SOL    HW182412   8.775   3.697   3.861
23451SOL    HW282413   8.743   3.806   3.978
23452SOL     OW82414   8.969   3.705   5.258
23452SOL    HW182415   8.953   3.664   5.168
23452SOL    HW282416   8.961   3.804   5.251
23453SOL     OW82417   8.100   4.013   4.415
23453SOL    HW182418   8.094   3.926   4.464
23453SOL    HW282419   8.196   4.042   4.411
23454SOL     OW82420   8.702   4.304   4.760
23454SOL    HW182421   8.709   4.346   4.669
23454SOL    HW282422   8.736   4.367   4.829
23455SOL     OW82423   8.972   3.741   4.148
23455SOL    HW182424   8.991   3.702   4.058
23455SOL    HW282425   8.879   3.776   4.150
23456SOL     OW82426   8.041   5.063   5.436
23456SOL    HW182427   7.973   5.122   5.393
23456SOL    HW282428   8.093   5.115   5.504
23457SOL     OW82429   7.555   5.166   4.804
23457SOL    HW182430   7.472   5.150   4.751
23457SOL    HW282431   7.532   5.171   4.901
23458SOL     OW82432   8.537   4.252   4.494
23458SOL    HW182433   8.619   4.199   4.470
23458SOL    HW282434   8.506   4.225   4.585
23459SOL     OW82435   9.152   4.326   5.415
23459SOL    HW182436   9.146   4.402   5.351
23459SOL    HW282437   9.247   4.298   5.426
23460SOL     OW82438   8.795   4.051   4.813
23460SOL    HW182439   8.766   4.145   4.795
23460SOL    HW282440   8.772   4.027   4.908
23461SOL     OW82441   8.925   4.197   5.500
23461SOL    HW182442   9.007   4.244   5.468
23461SOL    HW282443   8.949   4.138   5.577
23462SOL     OW82444   8.675   4.547   4.067
23462SOL    HW182445   8.615   4.593   4.134
23462SOL    HW282446   8.770   4.568   4.089
23463SOL     OW82447   8.909   4.681   4.377
23463SOL    HW182448   8.910   4.660   4.279
23463SOL    HW282449   8.816   4.667   4.412
23464SOL     OW82450   9.144   4.534   5.231
23464SOL    HW182451   9.077   4.608   5.223
23464SOL    HW282452   9.236   4.574   5.238
23465SOL     OW82453   8.973   3.994   3.864
23465SOL    HW182454   8.996   4.024   3.957
23465SOL    HW282455   8.904   3.921   3.869
23466SOL     OW82456   8.132   5.244   5.129
23466SOL    HW182457   8.060   5.313   5.135
23466SOL    HW282458   8.116   5.186   5.049
23467SOL     OW82459   7.511   3.950   5.399
23467SOL    HW182460   7.529   3.955   5.301
23467SOL    HW282461   7.414   3.931   5.414
23468SOL     OW82462   7.441   5.408   5.343
23468SOL    HW182463   7.527   5.412   5.395
23468SOL    HW282464   7.364   5.412   5.406
23469SOL     OW82465   7.586   4.077   4.332
23469SOL    HW182466   7.553   4.160   4.376
23469SOL    HW282467   7.607   4.009   4.403
23470SOL     OW82468   8.793   5.299   5.200
23470SOL    HW182469   8.728   5.363   5.242
23470SOL    HW282470   8.846   5.348   5.131
23471SOL     OW82471   7.666   4.269   3.925
23471SOL    HW182472   7.729   4.291   3.851
23471SOL    HW282473   7.691   4.321   4.006
23472SOL     OW82474   9.150   3.912   5.051
23472SOL    HW182475   9.082   3.948   5.115
23472SOL    HW282476   9.123   3.933   4.957
23473SOL     OW82477   7.887   5.531   4.420
23473SOL    HW182478   7.797   5.489   4.412
23473SOL    HW282479   7.951   5.487   4.357
23474SOL     OW82480   7.810   5.081   4.867
23474SOL    HW182481   7.808   4.991   4.910
23474SOL    HW282482   7.719   5.105   4.834
23475SOL     OW82483   8.543   5.282   5.535
23475SOL    HW182484   8.512   5.194   5.499
23475SOL    HW282485   8.568   5.342   5.460
23476SOL     OW82486   8.294   4.959   4.265
23476SOL    HW182487   8.367   4.952   4.197
23476SOL    HW282488   8.259   4.868   4.286
23477SOL     OW82489   7.620   4.002   3.913
23477SOL    HW182490   7.673   3.960   3.839
23477SOL    HW282491   7.631   4.101   3.911
23478SOL     OW82492   7.487   4.301   4.464
23478SOL    HW182493   7.401   4.317   4.513
23478SOL    HW282494   7.558   4.275   4.530
23479SOL     OW82495   8.484   4.394   3.730
23479SOL    HW182496   8.436   4.459   3.671
23479SOL    HW282497   8.547   4.340   3.675
23480SOL     OW82498   8.250   4.349   3.879
23480SOL    HW182499   8.337   4.359   3.832
23480SOL    HW282500   8.226   4.252   3.885
23481SOL     OW82501   8.715   3.853   4.143
23481SOL    HW182502   8.631   3.842   4.196
23481SOL    HW282503   8.737   3.951   4.136
23482SOL     OW82504   8.814   4.221   5.196
23482SOL    HW182505   8.758   4.253   5.271
23482SOL    HW282506   8.763   4.153   5.142
23483SOL     OW82507   7.465   3.764   3.856
23483SOL    HW182508   7.531   3.689   3.866
23483SOL    HW282509   7.505   3.848   3.891
23484SOL     OW82510   9.055   4.748   3.915
23484SOL    HW182511   9.153   4.767   3.924
23484SOL    HW282512   9.033   4.735   3.818
23485SOL     OW82513   8.047   4.305   4.908
23485SOL    HW182514   8.095   4.372   4.965
23485SOL    HW282515   7.948   4.321   4.916
23486SOL     OW82516   8.137   4.735   5.158
23486SOL    HW182517   8.203   4.792   5.109
23486SOL    HW282518   8.131   4.765   5.253
23487SOL     OW82519   8.563   4.774   5.371
23487SOL    HW182520   8.478   4.722   5.386
23487SOL    HW282521   8.640   4.720   5.405
23488SOL     OW82522   8.476   3.925   4.280
23488SOL    HW182523   8.424   4.008   4.301
23488SOL    HW282524   8.467   3.861   4.357
23489SOL     OW82525   8.596   5.449   5.316
23489SOL    HW182526   8.514   5.461   5.260
23489SOL    HW282527   8.630   5.538   5.346
23490SOL     OW82528   8.061   3.783   4.559
23490SOL    HW182529   8.017   3.700   4.524
23490SOL    HW282530   8.145   3.758   4.607
23491SOL     OW82531   7.707   5.528   4.957
23491SOL    HW182532   7.686   5.493   4.865
23491SOL    HW282533   7.625   5.526   5.013
23492SOL     OW82534   8.436   4.897   4.588
23492SOL    HW182535   8.445   4.976   4.527
23492SOL    HW282536   8.525   4.878   4.630
23493SOL     OW82537   7.638   3.713   4.134
23493SOL    HW182538   7.697   3.786   4.168
23493SOL    HW282539   7.545   3.725   4.169
23494SOL     OW82540   8.054   4.346   5.502
23494SOL    HW182541   8.075   4.405   5.425
23494SOL    HW282542   8.126   4.355   5.572
23495SOL     OW82543   7.447   4.744   3.937
23495SOL    HW182544   7.469   4.658   3.983
23495SOL    HW282545   7.466   4.736   3.839
23496SOL     OW82546   9.157   3.923   4.546
23496SOL    HW182547   9.129   3.942   4.641
23496SOL    HW282548   9.255   3.904   4.544
23497SOL     OW82549   8.211   4.954   4.726
23497SOL    HW182550   8.134   4.907   4.681
23497SOL    HW282551   8.295   4.933   4.677
23498SOL     OW82552   8.607   4.299   3.978
23498SOL    HW182553   8.630   4.386   4.022
23498SOL    HW282554   8.566   4.317   3.889
23499SOL     OW82555   8.952   5.174   5.382
23499SOL    HW182556   8.901   5.104   5.432
23499SOL    HW282557   8.893   5.216   5.313
23500SOL     OW82558   8.312   5.237   4.259
23500SOL    HW182559   8.385   5.257   4.193
23500SOL    HW282560   8.290   5.139   4.257
23501SOL     OW82561   8.365   5.481   5.158
23501SOL    HW182562   8.327   5.419   5.227
23501SOL    HW282563   8.296   5.546   5.130
23502SOL     OW82564   8.689   4.853   4.701
23502SOL    HW182565   8.692   4.951   4.720
23502SOL    HW282566   8.745   4.804   4.768
23503SOL     OW82567   7.891   4.132   5.436
23503SOL    HW182568   7.952   4.076   5.382
23503SOL    HW282569   7.940   4.212   5.471
23504SOL     OW82570   7.903   4.570   3.958
23504SOL    HW182571   7.866   4.595   3.869
23504SOL    HW282572   7.831   4.532   4.016
23505SOL     OW82573   9.012   4.616   4.679
23505SOL    HW182574   9.027   4.701   4.628
23505SOL    HW282575   8.952   4.633   4.757
23506SOL     OW82576   8.739   3.984   5.073
23506SOL    HW182577   8.813   3.957   5.134
23506SOL    HW282578   8.677   3.906   5.061
23507SOL     OW82579   7.384   3.783   4.202
23507SOL    HW182580   7.290   3.752   4.188
23507SOL    HW282581   7.393   3.879   4.175
23508SOL     OW82582   8.636   3.803   5.506
23508SOL    HW182583   8.708   3.793   5.575
23508SOL    HW282584   8.618   3.900   5.490
23509SOL     OW82585   7.871   5.277   5.347
23509SOL    HW182586   7.799   5.321   5.401
23509SOL    HW282587   7.889   5.331   5.265
23510SOL     OW82588   9.193   5.149   5.246
23510SOL    HW182589   9.237   5.238   5.261
23510SOL    HW282590   9.106   5.147   5.295
23511SOL     OW82591   8.451   4.189   4.752
23511SOL    HW182592   8.536   4.237   4.775
23511SOL    HW282593   8.450   4.100   4.799
23512SOL     OW82594   8.510   5.286   4.895
23512SOL    HW182595   8.469   5.288   4.986
23512SOL    HW282596   8.440   5.263   4.827
23513SOL     OW82597   7.676   5.436   5.496
23513SOL    HW182598   7.708   5.531   5.487
23513SOL    HW282599   7.677   5.410   5.593
23514SOL     OW82600   7.608   5.425   4.712
23514SOL    HW182601   7.611   5.327   4.730
23514SOL    HW282602   7.622   5.442   4.614
23515SOL     OW82603   8.448   3.805   4.526
23515SOL    HW182604   8.533   3.839   4.566
23515SOL    HW282605   8.389   3.769   4.598
23516SOL     OW82606   8.501   4.917   4.091
23516SOL    HW182607   8.587   4.958   4.121
23516SOL    HW282608   8.498   4.821   4.120
23517SOL     OW82609   9.026   4.141   4.424
23517SOL    HW182610   9.046   4.222   4.480
23517SOL    HW282611   9.076   4.063   4.462
23518SOL     OW82612   8.181   3.793   3.852
23518SOL    HW182613   8.266   3.739   3.848
23518SOL    HW282614   8.204   3.889   3.866
23519SOL     OW82615   7.958   4.174   4.590
23519SOL    HW182616   7.993   4.122   4.512
23519SOL    HW282617   8.031   4.229   4.630
23520SOL     OW82618   7.945   4.866   5.002
23520SOL    HW182619   7.994   4.803   5.062
23520SOL    HW282620   7.998   4.951   4.992
23521SOL     OW82621   9.108   4.810   4.984
23521SOL    HW182622   9.125   4.908   4.981
23521SOL    HW282623   9.176   4.762   4.929
23522SOL     OW82624   7.983   5.445   3.807
23522SOL    HW182625   7.979   5.543   3.828
23522SOL    HW282626   8.052   5.401   3.863
23523SOL     OW82627   8.716   4.814   5.138
23523SOL    HW182628   8.656   4.772   5.206
23523SOL    HW282629   8.694   4.912   5.129
23524SOL     OW82630   7.932   5.442   5.121
23524SOL    HW182631   7.996   5.519   5.114
23524SOL    HW282632   7.853   5.459   5.062
23525SOL     OW82633   7.602   4.210   5.427
23525SOL    HW182634   7.564   4.118   5.424
23525SOL    HW282635   7.701   4.206   5.432
23526SOL     OW82636   9.056   5.216   4.747
23526SOL    HW182637   9.093   5.306   4.769
23526SOL    HW282638   9.075   5.153   4.823
23527SOL     OW82639   7.340   4.686   4.271
23527SOL    HW182640   7.351   4.777   4.232
23527SOL    HW282641   7.245   4.673   4.301
23528SOL     OW82642   9.026   4.868   4.545
23528SOL    HW182643   9.003   4.965   4.535
23528SOL    HW282644   8.979   4.815   4.474
23529SOL     OW82645   8.199   4.291   4.686
23529SOL    HW182646   8.290   4.254   4.704
23529SOL    HW282647   8.148   4.295   4.772
23530SOL     OW82648   8.074   5.099   4.912
23530SOL    HW182649   7.978   5.112   4.888
23530SOL    HW282650   8.121   5.051   4.837
23531SOL     OW82651   9.040   5.424   5.471
23531SOL    HW182652   9.012   5.329   5.460
23531SOL    HW282653   9.010   5.478   5.392
23532SOL     OW82654   8.756   4.972   4.158
23532SOL    HW182655   8.844   4.977   4.206
23532SOL    HW282656   8.770   4.936   4.066
23533SOL     OW82657   8.033   4.040   4.156
23533SOL    HW182658   7.936   4.019   4.145
23533SOL    HW282659   8.057   4.031   4.253
23534SOL     OW82660   9.016   3.711   4.425
23534SOL    HW182661   8.997   3.731   4.329
23534SOL    HW282662   9.067   3.786   4.465
23535SOL     OW82663   8.549   4.480   5.060
23535SOL    HW182664   8.644   4.472   5.030
23535SOL    HW282665   8.499   4.538   4.995
23536SOL     OW82666   8.216   4.457   4.468
23536SOL    HW182667   8.209   4.402   4.551
23536SOL    HW282668   8.184   4.403   4.390
23537SOL     OW82669   8.690   5.119   4.760
23537SOL    HW182670   8.626   5.171   4.816
23537SOL    HW282671   8.706   5.167   4.674
23538SOL     OW82672   8.754   4.103   4.409
23538SOL    HW182673   8.735   4.105   4.311
23538SOL    HW282674   8.852   4.119   4.424
23539SOL     OW82675   8.980   4.985   6.092
23539SOL    HW182676   8.993   5.049   6.168
23539SOL    HW282677   9.067   4.940   6.072
23540SOL     OW82678   9.000   4.339   6.931
23540SOL    HW182679   8.945   4.287   6.997
23540SOL    HW282680   9.059   4.403   6.980
23541SOL     OW82681   7.760   3.893   5.487
23541SOL    HW182682   7.666   3.908   5.458
23541SOL    HW282683   7.811   3.979   5.481
23542SOL     OW82684   8.776   5.236   6.408
23542SOL    HW182685   8.772   5.335   6.395
23542SOL    HW282686   8.859   5.200   6.366
23543SOL     OW82687   8.348   4.692   7.257
23543SOL    HW182688   8.374   4.638   7.177
23543SOL    HW282689   8.278   4.643   7.309
23544SOL     OW82690   7.939   5.205   5.992
23544SOL    HW182691   7.899   5.221   6.082
23544SOL    HW282692   7.997   5.124   5.995
23545SOL     OW82693   7.948   3.748   5.629
23545SOL    HW182694   8.029   3.744   5.571
23545SOL    HW282695   7.878   3.806   5.586
23546SOL     OW82696   8.986   4.731   7.036
23546SOL    HW182697   8.890   4.756   7.024
23546SOL    HW282698   9.039   4.760   6.957
23547SOL     OW82699   8.871   4.700   6.745
23547SOL    HW182700   8.810   4.744   6.811
23547SOL    HW282701   8.964   4.732   6.759
23548SOL     OW82702   8.353   5.050   6.994
23548SOL    HW182703   8.271   5.108   6.991
23548SOL    HW282704   8.345   4.978   6.926
23549SOL     OW82705   7.851   4.920   6.255
23549SOL    HW182706   7.804   4.867   6.325
23549SOL    HW282707   7.948   4.897   6.255
23550SOL     OW82708   8.205   5.367   6.174
23550SOL    HW182709   8.249   5.291   6.126
23550SOL    HW282710   8.207   5.449   6.117
23551SOL     OW82711   9.158   5.328   5.924
23551SOL    HW182712   9.247   5.290   5.902
23551SOL    HW282713   9.121   5.377   5.845
23552SOL     OW82714   9.056   4.024   6.624
23552SOL    HW182715   9.079   4.119   6.645
23552SOL    HW282716   8.957   4.013   6.626
23553SOL     OW82717   8.439   4.105   6.035
23553SOL    HW182718   8.375   4.160   6.089
23553SOL    HW282719   8.470   4.028   6.090
23554SOL     OW82720   8.041   5.303   6.380
23554SOL    HW182721   8.106   5.330   6.309
23554SOL    HW282722   7.959   5.266   6.338
23555SOL     OW82723   9.027   5.137   6.330
23555SOL    HW182724   9.050   5.148   6.427
23555SOL    HW282725   9.076   5.206   6.276
23556SOL     OW82726   7.673   4.979   6.049
23556SOL    HW182727   7.729   4.957   6.129
23556SOL    HW282728   7.727   4.966   5.966
23557SOL     OW82729   8.493   3.988   5.792
23557SOL    HW182730   8.574   3.937   5.821
23557SOL    HW282731   8.462   4.047   5.866
23558SOL     OW82732   7.765   4.177   6.753
23558SOL    HW182733   7.748   4.078   6.744
23558SOL    HW282734   7.679   4.226   6.742
23559SOL     OW82735   8.779   4.449   6.814
23559SOL    HW182736   8.807   4.539   6.778
23559SOL    HW282737   8.858   4.405   6.857
23560SOL     OW82738   8.942   5.395   6.816
23560SOL    HW182739   8.868   5.414   6.752
23560SOL    HW282740   9.028   5.388   6.767
23561SOL     OW82741   9.113   4.281   6.690
23561SOL    HW182742   9.207   4.317   6.691
23561SOL    HW282743   9.068   4.302   6.777
23562SOL     OW82744   9.200   5.402   6.695
23562SOL    HW182745   9.229   5.437   6.785
23562SOL    HW282746   9.278   5.407   6.632
23563SOL     OW82747   8.280   4.251   6.222
23563SOL    HW182748   8.371   4.278   6.252
23563SOL    HW282749   8.222   4.231   6.301
23564SOL     OW82750   8.610   4.660   5.707
23564SOL    HW182751   8.643   4.620   5.793
23564SOL    HW282752   8.572   4.589   5.649
23565SOL     OW82753   9.129   4.380   5.901
23565SOL    HW182754   9.088   4.289   5.902
23565SOL    HW282755   9.189   4.391   5.980
23566SOL     OW82756   8.394   5.486   5.688
23566SOL    HW182757   8.435   5.426   5.620
23566SOL    HW282758   8.402   5.445   5.779
23567SOL     OW82759   8.160   3.724   7.223
23567SOL    HW182760   8.190   3.636   7.188
23567SOL    HW282761   8.162   3.722   7.323
23568SOL     OW82762   9.066   4.375   6.435
23568SOL    HW182763   9.020   4.464   6.438
23568SOL    HW282764   9.074   4.339   6.528
23569SOL     OW82765   8.425   4.960   7.247
23569SOL    HW182766   8.408   4.862   7.252
23569SOL    HW282767   8.397   4.994   7.158
23570SOL     OW82768   8.074   4.850   7.222
23570SOL    HW182769   8.023   4.930   7.255
23570SOL    HW282770   8.120   4.806   7.299
23571SOL     OW82771   8.803   3.679   6.391
23571SOL    HW182772   8.756   3.768   6.389
23571SOL    HW282773   8.893   3.688   6.348
23572SOL     OW82774   9.129   3.911   7.310
23572SOL    HW182775   9.092   3.945   7.396
23572SOL    HW282776   9.091   3.820   7.290
23573SOL     OW82777   7.331   4.381   6.125
23573SOL    HW182778   7.302   4.303   6.069
23573SOL    HW282779   7.373   4.348   6.209
23574SOL     OW82780   7.739   3.891   6.733
23574SOL    HW182781   7.717   3.806   6.781
23574SOL    HW282782   7.789   3.871   6.649
23575SOL     OW82783   8.526   4.500   6.490
23575SOL    HW182784   8.584   4.569   6.448
23575SOL    HW282785   8.513   4.424   6.427
23576SOL     OW82786   7.594   5.247   5.985
23576SOL    HW182787   7.622   5.152   6.004
23576SOL    HW282788   7.657   5.286   5.917
23577SOL     OW82789   8.856   5.039   6.811
23577SOL    HW182790   8.806   5.060   6.727
23577SOL    HW282791   8.792   5.027   6.886
23578SOL     OW82792   7.569   5.314   6.256
23578SOL    HW182793   7.470   5.320   6.270
23578SOL    HW282794   7.587   5.303   6.158
23579SOL     OW82795   9.123   5.064   6.841
23579SOL    HW182796   9.154   5.098   6.929
23579SOL    HW282797   9.023   5.060   6.839
23580SOL     OW82798   8.314   4.855   6.808
23580SOL    HW182799   8.356   4.770   6.776
23580SOL    HW282800   8.261   4.895   6.733
23581SOL     OW82801   8.968   4.601   5.936
23581SOL    HW182802   9.024   4.519   5.923
23581SOL    HW282803   8.997   4.671   5.870
23582SOL     OW82804   8.271   5.521   6.479
23582SOL    HW182805   8.329   5.448   6.443
23582SOL    HW282806   8.215   5.485   6.554
23583SOL     OW82807   8.108   4.639   5.657
23583SOL    HW182808   8.171   4.562   5.666
23583SOL    HW282809   8.014   4.604   5.653
23584SOL     OW82810   8.760   4.120   5.939
23584SOL    HW182811   8.710   4.183   5.880
23584SOL    HW282812   8.858   4.140   5.935
23585SOL     OW82813   7.693   4.300   7.028
23585SOL    HW182814   7.705   4.220   6.969
23585SOL    HW282815   7.640   4.275   7.109
23586SOL     OW82816   7.569   3.991   6.961
23586SOL    HW182817   7.631   3.957   6.890
23586SOL    HW282818   7.475   3.976   6.933
23587SOL     OW82819   8.397   4.615   6.703
23587SOL    HW182820   8.441   4.571   6.625
23587SOL    HW282821   8.302   4.582   6.711
23588SOL     OW82822   9.039   4.124   5.971
23588SOL    HW182823   9.125   4.072   5.968
23588SOL    HW282824   9.018   4.149   6.065
23589SOL     OW82825   8.417   5.292   6.417
23589SOL    HW182826   8.485   5.293   6.345
23589SOL    HW282827   8.345   5.226   6.395
23590SOL     OW82828   8.366   5.010   5.684
23590SOL    HW182829   8.445   5.050   5.732
23590SOL    HW282830   8.389   4.998   5.587
23591SOL     OW82831   9.151   5.334   6.196
23591SOL    HW182832   9.114   5.420   6.231
23591SOL    HW282833   9.146   5.334   6.096
23592SOL     OW82834   8.565   4.600   6.141
23592SOL    HW182835   8.600   4.638   6.227
23592SOL    HW282836   8.473   4.635   6.124
23593SOL     OW82837   8.225   5.345   7.164
23593SOL    HW182838   8.188   5.279   7.099
23593SOL    HW282839   8.215   5.309   7.257
23594SOL     OW82840   8.689   4.690   6.374
23594SOL    HW182841   8.780   4.666   6.410
23594SOL    HW282842   8.652   4.766   6.427
23595SOL     OW82843   7.719   4.779   6.447
23595SOL    HW182844   7.624   4.807   6.429
23595SOL    HW282845   7.736   4.779   6.545
23596SOL     OW82846   8.318   4.723   6.075
23596SOL    HW182847   8.290   4.743   5.981
23596SOL    HW282848   8.241   4.738   6.137
23597SOL     OW82849   8.633   5.044   6.989
23597SOL    HW182850   8.678   5.132   7.005
23597SOL    HW282851   8.534   5.057   6.991
23598SOL     OW82852   7.454   3.977   6.090
23598SOL    HW182853   7.533   3.941   6.039
23598SOL    HW282854   7.479   3.988   6.186
23599SOL     OW82855   9.054   5.516   5.729
23599SOL    HW182856   9.143   5.561   5.734
23599SOL    HW282857   9.044   5.471   5.640
23600SOL     OW82858   8.127   4.561   6.744
23600SOL    HW182859   8.124   4.592   6.840
23600SOL    HW282860   8.066   4.483   6.733
23601SOL     OW82861   7.489   5.483   6.959
23601SOL    HW182862   7.502   5.581   6.974
23601SOL    HW282863   7.468   5.439   7.046
23602SOL     OW82864   7.705   5.453   5.788
23602SOL    HW182865   7.792   5.483   5.751
23602SOL    HW282866   7.693   5.490   5.880
23603SOL     OW82867   8.722   5.462   6.667
23603SOL    HW182868   8.747   5.481   6.572
23603SOL    HW282869   8.642   5.401   6.669
23604SOL     OW82870   7.446   4.863   6.473
23604SOL    HW182871   7.355   4.860   6.431
23604SOL    HW282872   7.451   4.798   6.548
23605SOL     OW82873   7.423   4.846   6.076
23605SOL    HW182874   7.507   4.900   6.075
23605SOL    HW282875   7.407   4.808   5.985
23606SOL     OW82876   9.010   4.004   7.074
23606SOL    HW182877   8.939   4.075   7.075
23606SOL    HW282878   9.052   3.998   7.164
23607SOL     OW82879   8.692   3.933   6.396
23607SOL    HW182880   8.711   4.006   6.330
23607SOL    HW282881   8.728   3.958   6.486
23608SOL     OW82882   8.818   3.800   5.713
23608SOL    HW182883   8.892   3.734   5.718
23608SOL    HW282884   8.771   3.804   5.802
23609SOL     OW82885   9.040   3.729   7.077
23609SOL    HW182886   9.012   3.683   6.992
23609SOL    HW282887   9.017   3.826   7.072
23610SOL     OW82888   8.647   4.271   6.653
23610SOL    HW182889   8.617   4.330   6.578
23610SOL    HW282890   8.694   4.326   6.722
23611SOL     OW82891   8.975   3.762   5.994
23611SOL    HW182892   9.002   3.714   5.911
23611SOL    HW282893   8.879   3.790   5.987
23612SOL     OW82894   7.946   5.089   7.336
23612SOL    HW182895   7.890   5.139   7.269
23612SOL    HW282896   8.026   5.144   7.359
23613SOL     OW82897   7.758   4.709   7.139
23613SOL    HW182898   7.812   4.757   7.070
23613SOL    HW282899   7.707   4.776   7.194
23614SOL     OW82900   7.492   5.089   6.623
23614SOL    HW182901   7.479   5.016   6.556
23614SOL    HW282902   7.421   5.083   6.693
23615SOL     OW82903   8.522   4.269   6.348
23615SOL    HW182904   8.599   4.224   6.302
23615SOL    HW282905   8.486   4.208   6.419
23616SOL     OW82906   9.158   4.350   7.296
23616SOL    HW182907   9.151   4.402   7.211
23616SOL    HW282908   9.249   4.310   7.303
23617SOL     OW82909   8.775   4.021   6.642
23617SOL    HW182910   8.733   4.111   6.651
23617SOL    HW282911   8.748   3.964   6.720
23618SOL     OW82912   8.937   4.203   7.353
23618SOL    HW182913   9.017   4.262   7.340
23618SOL    HW282914   8.956   4.137   7.426
23619SOL     OW82915   8.706   4.523   5.925
23619SOL    HW182916   8.654   4.546   6.008
23619SOL    HW282917   8.801   4.551   5.936
23620SOL     OW82918   8.923   4.689   6.189
23620SOL    HW182919   8.936   4.664   6.093
23620SOL    HW282920   8.825   4.700   6.207
23621SOL     OW82921   9.145   4.517   7.079
23621SOL    HW182922   9.077   4.591   7.075
23621SOL    HW282923   9.237   4.557   7.077
23622SOL     OW82924   8.991   4.018   5.702
23622SOL    HW182925   9.012   4.052   5.794
23622SOL    HW282926   8.920   3.948   5.708
23623SOL     OW82927   8.107   5.193   6.968
23623SOL    HW182928   8.040   5.268   6.970
23623SOL    HW282929   8.074   5.121   6.907
23624SOL     OW82930   7.538   3.978   7.238
23624SOL    HW182931   7.550   3.979   7.138
23624SOL    HW282932   7.443   3.957   7.260
23625SOL     OW82933   7.439   5.368   7.201
23625SOL    HW182934   7.521   5.390   7.254
23625SOL    HW282935   7.358   5.380   7.259
23626SOL     OW82936   7.510   4.023   6.354
23626SOL    HW182937   7.486   4.120   6.361
23626SOL    HW282938   7.592   4.006   6.408
23627SOL     OW82939   8.774   5.277   7.016
23627SOL    HW182940   8.716   5.345   7.061
23627SOL    HW282941   8.826   5.321   6.942
23628SOL     OW82942   9.182   3.950   6.866
23628SOL    HW182943   9.115   3.975   6.936
23628SOL    HW282944   9.143   3.965   6.775
23629SOL     OW82945   7.764   5.519   6.274
23629SOL    HW182946   7.705   5.440   6.294
23629SOL    HW282947   7.753   5.545   6.178
23630SOL     OW82948   7.727   5.051   6.757
23630SOL    HW182949   7.702   5.067   6.852
23630SOL    HW282950   7.650   5.076   6.698
23631SOL     OW82951   8.631   5.166   7.319
23631SOL    HW182952   8.571   5.092   7.288
23631SOL    HW282953   8.610   5.250   7.268
23632SOL     OW82954   8.103   4.985   6.020
23632SOL    HW182955   8.136   4.928   5.945
23632SOL    HW282956   8.104   4.932   6.105
23633SOL     OW82957   7.831   4.517   6.444
23633SOL    HW182958   7.813   4.615   6.439
23633SOL    HW282959   7.910   4.495   6.388
23634SOL     OW82960   7.424   4.284   6.370
23634SOL    HW182961   7.334   4.301   6.411
23634SOL    HW282962   7.489   4.352   6.404
23635SOL     OW82963   8.505   4.443   5.558
23635SOL    HW182964   8.455   4.509   5.500
23635SOL    HW282965   8.569   4.392   5.501
23636SOL     OW82966   8.259   4.405   5.684
23636SOL    HW182967   8.349   4.416   5.642
23636SOL    HW282968   8.268   4.357   5.771
23637SOL     OW82969   8.708   3.858   5.959
23637SOL    HW182970   8.643   3.841   6.032
23637SOL    HW282971   8.731   3.955   5.957
23638SOL     OW82972   8.832   4.214   7.107
23638SOL    HW182973   8.863   4.214   7.202
23638SOL    HW282974   8.738   4.247   7.102
23639SOL     OW82975   7.470   3.771   5.669
23639SOL    HW182976   7.558   3.746   5.710
23639SOL    HW282977   7.484   3.848   5.606
23640SOL     OW82978   7.735   4.782   6.719
23640SOL    HW182979   7.795   4.747   6.791
23640SOL    HW282980   7.725   4.881   6.730
23641SOL     OW82981   9.063   4.768   5.743
23641SOL    HW182982   9.160   4.786   5.755
23641SOL    HW282983   9.038   4.774   5.647
23642SOL     OW82984   7.952   4.358   6.653
23642SOL    HW182985   7.898   4.412   6.589
23642SOL    HW282986   7.894   4.291   6.699
23643SOL     OW82987   8.161   4.712   6.993
23643SOL    HW182988   8.224   4.770   6.941
23643SOL    HW282989   8.143   4.754   7.082
23644SOL     OW82990   8.528   3.872   6.174
23644SOL    HW182991   8.583   3.889   6.256
23644SOL    HW282992   8.451   3.813   6.197
23645SOL     OW82993   8.589   5.408   7.178
23645SOL    HW182994   8.519   5.435   7.111
23645SOL    HW282995   8.593   5.476   7.251
23646SOL     OW82996   7.879   3.781   6.508
23646SOL    HW182997   7.845   3.752   6.418
23646SOL    HW282998   7.976   3.806   6.500
23647SOL     OW82999   7.706   5.458   6.793
23647SOL    HW183000   7.676   5.416   6.707
23647SOL    HW283001   7.631   5.456   6.858
23648SOL     OW83002   8.365   4.955   6.365
23648SOL    HW183003   8.414   4.964   6.277
23648SOL    HW283004   8.429   4.922   6.434
23649SOL     OW83005   8.103   4.677   6.492
23649SOL    HW183006   8.100   4.599   6.429
23649SOL    HW283007   8.108   4.644   6.586
23650SOL     OW83008   7.483   4.680   6.668
23650SOL    HW183009   7.571   4.704   6.708
23650SOL    HW283010   7.495   4.605   6.603
23651SOL     OW83011   7.685   3.774   6.033
23651SOL    HW183012   7.751   3.754   6.107
23651SOL    HW283013   7.596   3.736   6.058
23652SOL     OW83014   8.039   4.329   7.296
23652SOL    HW183015   7.998   4.373   7.216
23652SOL    HW283016   8.102   4.392   7.341
23653SOL     OW83017   9.142   3.971   6.364
23653SOL    HW183018   9.120   3.980   6.461
23653SOL    HW283019   9.241   3.977   6.352
23654SOL     OW83020   8.171   4.930   6.581
23654SOL    HW183021   8.140   4.841   6.550
23654SOL    HW283022   8.233   4.969   6.513
23655SOL     OW83023   8.638   4.306   5.778
23655SOL    HW183024   8.662   4.383   5.837
23655SOL    HW283025   8.588   4.339   5.698
23656SOL     OW83026   8.938   5.185   7.210
23656SOL    HW183027   8.887   5.128   7.275
23656SOL    HW283028   8.878   5.209   7.134
23657SOL     OW83029   7.608   4.543   6.941
23657SOL    HW183030   7.637   4.453   6.975
23657SOL    HW283031   7.648   4.614   6.998
23658SOL     OW83032   8.192   5.216   5.611
23658SOL    HW183033   8.161   5.276   5.685
23658SOL    HW283034   8.255   5.147   5.648
23659SOL     OW83035   8.102   5.374   6.637
23659SOL    HW183036   8.074   5.339   6.548
23659SOL    HW283037   8.037   5.344   6.707
23660SOL     OW83038   8.131   4.842   6.265
23660SOL    HW183039   8.212   4.895   6.293
23660SOL    HW283040   8.108   4.776   6.337
23661SOL     OW83041   8.329   5.145   6.051
23661SOL    HW183042   8.394   5.071   6.069
23661SOL    HW283043   8.240   5.106   6.029
23662SOL     OW83044   7.560   4.500   6.469
23662SOL    HW183045   7.659   4.500   6.457
23662SOL    HW283046   7.517   4.549   6.393
23663SOL     OW83047   8.396   5.485   6.995
23663SOL    HW183048   8.337   5.431   7.054
23663SOL    HW283049   8.341   5.554   6.946
23664SOL     OW83050   8.555   4.864   6.545
23664SOL    HW183051   8.602   4.949   6.571
23664SOL    HW283052   8.536   4.810   6.627
23665SOL     OW83053   7.957   4.063   7.282
23665SOL    HW183054   8.008   4.017   7.209
23665SOL    HW283055   7.993   4.156   7.295
23666SOL     OW83056   8.941   4.630   6.491
23666SOL    HW183057   8.989   4.711   6.455
23666SOL    HW283058   8.913   4.647   6.586
23667SOL     OW83059   7.438   3.684   6.102
23667SOL    HW183060   7.397   3.610   6.048
23667SOL    HW283061   7.382   3.766   6.092
23668SOL     OW83062   7.791   5.252   7.174
23668SOL    HW183063   7.746   5.319   7.233
23668SOL    HW283064   7.839   5.300   7.100
23669SOL     OW83065   9.192   5.151   7.098
23669SOL    HW183066   9.238   5.237   7.118
23669SOL    HW283067   9.102   5.150   7.142
23670SOL     OW83068   8.398   4.155   6.573
23670SOL    HW183069   8.473   4.185   6.632
23670SOL    HW283070   8.402   4.056   6.559
23671SOL     OW83071   7.824   5.193   6.250
23671SOL    HW183072   7.831   5.094   6.260
23671SOL    HW283073   7.730   5.222   6.266
23672SOL     OW83074   8.496   5.306   6.678
23672SOL    HW183075   8.419   5.321   6.740
23672SOL    HW283076   8.463   5.304   6.584
23673SOL     OW83077   7.666   5.440   7.337
23673SOL    HW183078   7.689   5.537   7.325
23673SOL    HW283079   7.667   5.417   7.434
23674SOL     OW83080   7.563   5.346   6.566
23674SOL    HW183081   7.540   5.251   6.588
23674SOL    HW283082   7.574   5.356   6.467
23675SOL     OW83083   8.438   3.896   6.517
23675SOL    HW183084   8.530   3.884   6.480
23675SOL    HW283085   8.406   3.810   6.557
23676SOL     OW83086   8.486   4.935   6.116
23676SOL    HW183087   8.581   4.928   6.087
23676SOL    HW283088   8.438   4.850   6.094
23677SOL     OW83089   9.003   4.178   6.244
23677SOL    HW183090   9.022   4.258   6.301
23677SOL    HW283091   9.051   4.099   6.281
23678SOL     OW83092   8.220   4.824   5.831
23678SOL    HW183093   8.279   4.887   5.780
23678SOL    HW283094   8.178   4.759   5.768
23679SOL     OW83095   8.371   3.811   5.602
23679SOL    HW183096   8.459   3.777   5.568
23679SOL    HW283097   8.386   3.865   5.685
23680SOL     OW83098   7.912   4.797   6.931
23680SOL    HW183099   7.995   4.750   6.959
23680SOL    HW283100   7.936   4.886   6.892
23681SOL     OW83101   9.121   4.793   6.803
23681SOL    HW183102   9.129   4.892   6.813
23681SOL    HW283103   9.203   4.758   6.758
23682SOL     OW83104   8.078   5.373   5.820
23682SOL    HW183105   8.017   5.433   5.768
23682SOL    HW283106   8.023   5.315   5.881
23683SOL     OW83107   8.723   4.788   6.960
23683SOL    HW183108   8.653   4.718   6.967
23683SOL    HW283109   8.683   4.877   6.981
23684SOL     OW83110   7.919   5.397   6.974
23684SOL    HW183111   7.956   5.475   7.025
23684SOL    HW283112   7.852   5.429   6.908
23685SOL     OW83113   7.566   4.251   7.271
23685SOL    HW183114   7.564   4.151   7.276
23685SOL    HW283115   7.642   4.286   7.325
23686SOL     OW83116   9.094   5.175   6.587
23686SOL    HW183117   9.126   5.266   6.612
23686SOL    HW283118   9.087   5.118   6.668
23687SOL     OW83119   7.442   4.613   6.246
23687SOL    HW183120   7.435   4.701   6.200
23687SOL    HW283121   7.399   4.542   6.190
23688SOL     OW83122   7.901   4.462   7.104
23688SOL    HW183123   7.832   4.399   7.069
23688SOL    HW283124   7.860   4.552   7.118
23689SOL     OW83125   9.041   4.863   6.372
23689SOL    HW183126   9.025   4.962   6.364
23689SOL    HW283127   9.001   4.817   6.293
23690SOL     OW83128   8.161   4.265   6.487
23690SOL    HW183129   8.244   4.226   6.526
23690SOL    HW283130   8.094   4.282   6.559
23691SOL     OW83131   7.999   5.020   6.785
23691SOL    HW183132   7.905   5.041   6.759
23691SOL    HW283133   8.052   4.997   6.704
23692SOL     OW83134   7.557   4.368   6.721
23692SOL    HW183135   7.572   4.436   6.792
23692SOL    HW283136   7.561   4.411   6.631
23693SOL     OW83137   7.633   5.094   7.006
23693SOL    HW183138   7.688   5.142   7.075
23693SOL    HW283139   7.536   5.103   7.029
23694SOL     OW83140   9.020   5.450   7.240
23694SOL    HW183141   8.993   5.354   7.226
23694SOL    HW283142   8.986   5.506   7.165
23695SOL     OW83143   8.735   4.896   6.013
23695SOL    HW183144   8.824   4.930   6.044
23695SOL    HW283145   8.741   4.868   5.918
23696SOL     OW83146   9.035   3.738   6.259
23696SOL    HW183147   9.019   3.751   6.161
23696SOL    HW283148   9.078   3.820   6.296
23697SOL     OW83149   8.555   4.574   6.926
23697SOL    HW183150   8.631   4.516   6.897
23697SOL    HW283151   8.490   4.584   6.850
23698SOL     OW83152   8.078   4.463   6.323
23698SOL    HW183153   8.107   4.390   6.385
23698SOL    HW283154   8.117   4.447   6.232
23699SOL     OW83155   8.670   5.100   6.613
23699SOL    HW183156   8.608   5.165   6.656
23699SOL    HW283157   8.713   5.143   6.533
23700SOL     OW83158   8.732   4.138   6.221
23700SOL    HW183159   8.712   4.138   6.123
23700SOL    HW283160   8.828   4.161   6.235
23701SOL     OW83161   8.439   5.203   8.143
23701SOL    HW183162   8.535   5.227   8.159
23701SOL    HW283163   8.396   5.275   8.088
23702SOL     OW83164   9.071   4.988   8.029
23702SOL    HW183165   9.010   5.041   7.969
23702SOL    HW283166   9.146   4.950   7.976
23703SOL     OW83167   8.988   4.264   8.848
23703SOL    HW183168   8.898   4.236   8.879
23703SOL    HW283169   9.046   4.284   8.927
23704SOL     OW83170   7.759   3.899   7.377
23704SOL    HW183171   7.678   3.923   7.324
23704SOL    HW283172   7.836   3.956   7.348
23705SOL     OW83173   8.695   5.265   8.210
23705SOL    HW183174   8.714   5.363   8.221
23705SOL    HW283175   8.782   5.216   8.198
23706SOL     OW83176   8.367   4.545   9.074
23706SOL    HW183177   8.378   4.454   9.034
23706SOL    HW283178   8.303   4.540   9.151
23707SOL     OW83179   7.922   5.190   7.778
23707SOL    HW183180   7.882   5.230   7.861
23707SOL    HW283181   7.974   5.108   7.803
23708SOL     OW83182   7.901   3.694   7.517
23708SOL    HW183183   8.001   3.695   7.507
23708SOL    HW283184   7.863   3.773   7.470
23709SOL     OW83185   8.973   4.789   8.942
23709SOL    HW183186   8.883   4.815   8.907
23709SOL    HW283187   9.044   4.813   8.875
23710SOL     OW83188   8.915   4.695   8.640
23710SOL    HW183189   8.835   4.742   8.678
23710SOL    HW283190   8.998   4.742   8.669
23711SOL     OW83191   8.499   4.989   8.750
23711SOL    HW183192   8.483   5.065   8.687
23711SOL    HW283193   8.434   4.915   8.731
23712SOL     OW83194   7.789   4.967   7.971
23712SOL    HW183195   7.772   4.920   8.057
23712SOL    HW283196   7.881   4.945   7.939
23713SOL     OW83197   8.685   4.218   9.218
23713SOL    HW183198   8.785   4.218   9.224
23713SOL    HW283199   8.650   4.131   9.253
23714SOL     OW83200   7.784   5.068   7.567
23714SOL    HW183201   7.834   5.079   7.481
23714SOL    HW283202   7.829   5.122   7.638
23715SOL     OW83203   7.662   4.480   7.789
23715SOL    HW183204   7.604   4.463   7.869
23715SOL    HW283205   7.605   4.494   7.709
23716SOL     OW83206   8.264   5.435   8.069
23716SOL    HW183207   8.322   5.506   8.108
23716SOL    HW283208   8.216   5.472   7.990
23717SOL     OW83209   9.267   5.359   7.733
23717SOL    HW183210   9.351   5.305   7.743
23717SOL    HW283211   9.231   5.346   7.641
23718SOL     OW83212   8.412   3.850   7.754
23718SOL    HW183213   8.503   3.816   7.775
23718SOL    HW283214   8.343   3.783   7.784
23719SOL     OW83215   7.784   4.361   7.404
23719SOL    HW183216   7.792   4.461   7.407
23719SOL    HW283217   7.869   4.322   7.370
23720SOL     OW83218   8.049   5.306   8.201
23720SOL    HW183219   8.123   5.347   8.148
23720SOL    HW283220   7.972   5.286   8.141
23721SOL     OW83221   8.384   4.296   8.966
23721SOL    HW183222   8.391   4.212   9.020
23721SOL    HW283223   8.460   4.301   8.902
23722SOL     OW83224   8.931   5.138   8.229
23722SOL    HW183225   8.976   5.179   8.308
23722SOL    HW283226   8.998   5.085   8.176
23723SOL     OW83227   7.595   4.967   7.775
23723SOL    HW183228   7.659   4.961   7.852
23723SOL    HW283229   7.647   4.971   7.689
23724SOL     OW83230   8.718   3.985   7.587
23724SOL    HW183231   8.746   4.069   7.632
23724SOL    HW283232   8.635   4.001   7.534
23725SOL     OW83233   8.841   4.429   8.677
23725SOL    HW183234   8.876   4.522   8.666
23725SOL    HW283235   8.904   4.376   8.734
23726SOL     OW83236   7.742   3.913   7.853
23726SOL    HW183237   7.713   3.980   7.922
23726SOL    HW283238   7.723   3.949   7.762
23727SOL     OW83239   8.975   5.511   8.671
23727SOL    HW183240   8.895   5.483   8.617
23727SOL    HW283241   9.057   5.505   8.613
23728SOL     OW83242   9.218   4.172   8.711
23728SOL    HW183243   9.271   4.250   8.679
23728SOL    HW283244   9.133   4.204   8.753
23729SOL     OW83245   9.209   5.451   8.523
23729SOL    HW183246   9.247   5.479   8.611
23729SOL    HW283247   9.284   5.427   8.460
23730SOL     OW83248   8.399   4.066   9.123
23730SOL    HW183249   8.463   4.040   9.195
23730SOL    HW283250   8.328   3.996   9.115
23731SOL     OW83251   9.176   4.346   7.680
23731SOL    HW183252   9.185   4.259   7.631
23731SOL    HW283253   9.198   4.332   7.776
23732SOL     OW83254   8.066   3.763   9.088
23732SOL    HW183255   8.106   3.673   9.068
23732SOL    HW283256   8.102   3.797   9.175
23733SOL     OW83257   9.117   4.360   8.366
23733SOL    HW183258   9.057   4.440   8.364
23733SOL    HW283259   9.080   4.293   8.430
23734SOL     OW83260   8.494   4.941   9.060
23734SOL    HW183261   8.532   4.849   9.049
23734SOL    HW283262   8.486   4.985   8.970
23735SOL     OW83263   9.158   3.914   9.172
23735SOL    HW183264   9.112   3.935   9.258
23735SOL    HW283265   9.099   3.857   9.115
23736SOL     OW83266   7.432   4.417   7.947
23736SOL    HW183267   7.456   4.360   8.025
23736SOL    HW283268   7.385   4.499   7.980
23737SOL     OW83269   7.699   3.842   8.622
23737SOL    HW183270   7.704   3.743   8.633
23737SOL    HW283271   7.749   3.869   8.540
23738SOL     OW83272   7.550   5.239   7.771
23738SOL    HW183273   7.560   5.140   7.771
23738SOL    HW283274   7.608   5.279   7.700
23739SOL     OW83275   8.878   5.022   8.662
23739SOL    HW183276   8.823   5.044   8.581
23739SOL    HW283277   8.824   4.966   8.724
23740SOL     OW83278   7.553   5.302   8.046
23740SOL    HW183279   7.456   5.310   8.071
23740SOL    HW283280   7.561   5.289   7.948
23741SOL     OW83281   9.137   5.091   8.664
23741SOL    HW183282   9.163   5.133   8.751
23741SOL    HW283283   9.040   5.068   8.666
23742SOL     OW83284   7.862   4.626   7.390
23742SOL    HW183285   7.825   4.662   7.304
23742SOL    HW283286   7.856   4.696   7.461
23743SOL     OW83287   8.336   4.762   8.685
23743SOL    HW183288   8.360   4.668   8.663
23743SOL    HW283289   8.316   4.813   8.601
23744SOL     OW83290   7.483   4.476   7.583
23744SOL    HW183291   7.487   4.445   7.489
23744SOL    HW283292   7.402   4.437   7.628
23745SOL     OW83293   8.929   4.449   7.728
23745SOL    HW183294   9.020   4.414   7.706
23745SOL    HW283295   8.899   4.511   7.655
23746SOL     OW83296   8.252   5.537   8.407
23746SOL    HW183297   8.268   5.439   8.400
23746SOL    HW283298   8.222   5.559   8.501
23747SOL     OW83299   8.137   4.581   7.405
23747SOL    HW183300   8.155   4.583   7.504
23747SOL    HW283301   8.039   4.593   7.389
23748SOL     OW83302   8.827   4.189   7.721
23748SOL    HW183303   8.835   4.288   7.725
23748SOL    HW283304   8.907   4.147   7.763
23749SOL     OW83305   7.498   3.832   8.813
23749SOL    HW183306   7.571   3.850   8.747
23749SOL    HW283307   7.413   3.874   8.782
23750SOL     OW83308   8.374   4.492   8.628
23750SOL    HW183309   8.397   4.430   8.553
23750SOL    HW283310   8.296   4.456   8.679
23751SOL     OW83311   9.067   4.102   7.818
23751SOL    HW183312   9.147   4.042   7.822
23751SOL    HW283313   9.082   4.181   7.878
23752SOL     OW83314   8.293   5.266   8.365
23752SOL    HW183315   8.351   5.241   8.287
23752SOL    HW283316   8.197   5.252   8.342
23753SOL     OW83317   8.231   3.964   7.584
23753SOL    HW183318   8.199   4.056   7.608
23753SOL    HW283319   8.304   3.937   7.647
23754SOL     OW83320   8.341   5.042   7.490
23754SOL    HW183321   8.421   5.079   7.539
23754SOL    HW283322   8.369   5.009   7.400
23755SOL     OW83323   8.707   4.643   8.055
23755SOL    HW183324   8.705   4.620   8.152
23755SOL    HW283325   8.615   4.670   8.026
23756SOL     OW83326   8.709   4.605   8.324
23756SOL    HW183327   8.806   4.609   8.348
23756SOL    HW283328   8.663   4.687   8.357
23757SOL     OW83329   7.727   4.850   8.212
23757SOL    HW183330   7.630   4.855   8.237
23757SOL    HW283331   7.783   4.875   8.292
23758SOL     OW83332   8.177   4.828   8.062
23758SOL    HW183333   8.157   4.741   8.107
23758SOL    HW283334   8.255   4.872   8.108
23759SOL     OW83335   7.441   4.038   7.814
23759SOL    HW183336   7.502   4.030   7.735
23759SOL    HW283337   7.495   4.060   7.895
23760SOL     OW83338   8.183   4.401   8.801
23760SOL    HW183339   8.164   4.491   8.839
23760SOL    HW283340   8.239   4.348   8.865
23761SOL     OW83341   7.394   5.533   8.780
23761SOL    HW183342   7.337   5.616   8.785
23761SOL    HW283343   7.392   5.485   8.868
23762SOL     OW83344   8.165   4.602   7.680
23762SOL    HW183345   8.072   4.600   7.719
23762SOL    HW283346   8.227   4.553   7.741
23763SOL     OW83347   7.697   5.447   7.619
23763SOL    HW183348   7.782   5.486   7.583
23763SOL    HW283349   7.690   5.468   7.717
23764SOL     OW83350   8.772   5.404   8.509
23764SOL    HW183351   8.765   5.451   8.422
23764SOL    HW283352   8.839   5.330   8.503
23765SOL     OW83353   7.464   4.830   8.308
23765SOL    HW183354   7.367   4.851   8.291
23765SOL    HW283355   7.477   4.731   8.303
23766SOL     OW83356   8.177   3.689   7.786
23766SOL    HW183357   8.168   3.684   7.687
23766SOL    HW283358   8.097   3.736   7.825
23767SOL     OW83359   7.346   4.843   7.859
23767SOL    HW183360   7.430   4.887   7.827
23767SOL    HW283361   7.308   4.786   7.786
23768SOL     OW83362   8.836   3.991   9.067
23768SOL    HW183363   8.784   4.045   9.001
23768SOL    HW283364   8.887   4.051   9.127
23769SOL     OW83365   8.974   3.767   9.017
23769SOL    HW183366   8.977   3.752   8.919
23769SOL    HW283367   8.913   3.843   9.038
23770SOL     OW83368   8.709   4.357   8.445
23770SOL    HW183369   8.705   4.440   8.391
23770SOL    HW283370   8.762   4.373   8.528
23771SOL     OW83371   8.952   3.726   7.718
23771SOL    HW183372   8.952   3.718   7.619
23771SOL    HW283373   8.860   3.747   7.750
23772SOL     OW83374   7.434   5.092   8.455
23772SOL    HW183375   7.442   5.004   8.408
23772SOL    HW283376   7.360   5.087   8.522
23773SOL     OW83377   9.152   4.322   9.069
23773SOL    HW183378   9.148   4.411   9.023
23773SOL    HW283379   9.247   4.295   9.082
23774SOL     OW83380   8.958   4.190   9.218
23774SOL    HW183381   9.032   4.237   9.170
23774SOL    HW283382   8.996   4.128   9.287
23775SOL     OW83383   8.957   4.602   7.960
23775SOL    HW183384   8.945   4.540   7.882
23775SOL    HW283385   8.867   4.625   7.998
23776SOL     OW83386   9.140   4.551   8.925
23776SOL    HW183387   9.062   4.612   8.909
23776SOL    HW283388   9.224   4.604   8.926
23777SOL     OW83389   8.997   4.002   7.538
23777SOL    HW183390   9.031   4.021   7.630
23777SOL    HW283391   8.901   3.975   7.543
23778SOL     OW83392   7.528   3.819   9.086
23778SOL    HW183393   7.528   3.829   8.987
23778SOL    HW283394   7.438   3.843   9.122
23779SOL     OW83395   7.369   5.422   9.041
23779SOL    HW183396   7.443   5.433   9.107
23779SOL    HW283397   7.281   5.419   9.089
23780SOL     OW83398   7.596   4.068   8.044
23780SOL    HW183399   7.567   4.150   8.093
23780SOL    HW283400   7.614   3.994   8.110
23781SOL     OW83401   7.724   4.249   7.646
23781SOL    HW183402   7.749   4.290   7.558
23781SOL    HW283403   7.710   4.321   7.713
23782SOL     OW83404   7.898   5.557   8.051
23782SOL    HW183405   7.814   5.524   8.007
23782SOL    HW283406   7.975   5.547   7.987
23783SOL     OW83407   8.044   4.953   7.858
23783SOL    HW183408   8.084   4.925   7.771
23783SOL    HW283409   8.097   4.912   7.933
23784SOL     OW83410   7.734   4.606   8.079
23784SOL    HW183411   7.746   4.697   8.121
23784SOL    HW283412   7.788   4.601   7.995
23785SOL     OW83413   7.634   4.001   7.606
23785SOL    HW183414   7.683   3.960   7.530
23785SOL    HW283415   7.665   4.095   7.619
23786SOL     OW83416   7.486   4.284   8.183
23786SOL    HW183417   7.517   4.372   8.219
23786SOL    HW283418   7.391   4.269   8.209
23787SOL     OW83419   7.883   4.815   7.586
23787SOL    HW183420   7.981   4.838   7.590
23787SOL    HW283421   7.830   4.900   7.577
23788SOL     OW83422   8.701   3.817   7.798
23788SOL    HW183423   8.703   3.878   7.718
23788SOL    HW283424   8.710   3.872   7.881
23789SOL     OW83425   8.730   4.216   8.942
23789SOL    HW183426   8.704   4.233   9.037
23789SOL    HW283427   8.675   4.273   8.882
23790SOL     OW83428   7.451   3.779   7.589
23790SOL    HW183429   7.499   3.736   7.665
23790SOL    HW283430   7.492   3.868   7.569
23791SOL     OW83431   8.186   4.663   8.900
23791SOL    HW183432   8.229   4.713   8.824
23791SOL    HW283433   8.255   4.640   8.968
23792SOL     OW83434   8.590   4.686   8.997
23792SOL    HW183435   8.504   4.640   9.019
23792SOL    HW283436   8.666   4.626   9.022
23793SOL     OW83437   7.891   3.745   8.267
23793SOL    HW183438   7.911   3.669   8.330
23793SOL    HW283439   7.976   3.787   8.236
23794SOL     OW83440   7.608   5.549   8.590
23794SOL    HW183441   7.589   5.479   8.522
23794SOL    HW283442   7.539   5.545   8.663
23795SOL     OW83443   8.391   4.937   8.200
23795SOL    HW183444   8.410   5.030   8.170
23795SOL    HW283445   8.475   4.897   8.239
23796SOL     OW83446   7.592   3.688   7.809
23796SOL    HW183447   7.661   3.755   7.835
23796SOL    HW283448   7.511   3.700   7.867
23797SOL     OW83449   8.011   4.344   9.115
23797SOL    HW183450   7.973   4.425   9.071
23797SOL    HW283451   8.099   4.367   9.156
23798SOL     OW83452   8.312   4.922   8.467
23798SOL    HW183453   8.242   4.984   8.503
23798SOL    HW283454   8.317   4.933   8.368
23799SOL     OW83455   8.995   5.195   9.127
23799SOL    HW183456   8.996   5.136   9.207
23799SOL    HW283457   8.901   5.202   9.092
23800SOL     OW83458   8.165   5.241   7.416
23800SOL    HW183459   8.139   5.297   7.494
23800SOL    HW283460   8.230   5.170   7.446
23801SOL     OW83461   7.982   5.292   8.466
23801SOL    HW183462   7.997   5.301   8.367
23801SOL    HW283463   7.900   5.345   8.492
23802SOL     OW83464   7.508   4.562   8.224
23802SOL    HW183465   7.595   4.571   8.175
23802SOL    HW283466   7.433   4.591   8.164
23803SOL     OW83467   8.579   4.840   8.395
23803SOL    HW183468   8.638   4.918   8.416
23803SOL    HW283469   8.493   4.849   8.444
23804SOL     OW83470   7.846   4.131   9.095
23804SOL    HW183471   7.885   4.067   9.029
23804SOL    HW283472   7.905   4.211   9.104
23805SOL     OW83473   7.904   4.612   7.773
23805SOL    HW183474   7.885   4.690   7.713
23805SOL    HW283475   7.822   4.554   7.779
23806SOL     OW83476   8.978   4.601   8.387
23806SOL    HW183477   9.018   4.669   8.324
23806SOL    HW283478   8.966   4.642   8.477
23807SOL     OW83479   7.361   3.793   7.916
23807SOL    HW183480   7.271   3.769   7.880
23807SOL    HW283481   7.387   3.884   7.883
23808SOL     OW83482   8.562   3.750   9.093
23808SOL    HW183483   8.589   3.843   9.118
23808SOL    HW283484   8.487   3.753   9.027
23809SOL     OW83485   9.191   5.177   8.924
23809SOL    HW183486   9.250   5.257   8.936
23809SOL    HW283487   9.116   5.180   8.990
23810SOL     OW83488   8.447   4.295   8.455
23810SOL    HW183489   8.545   4.311   8.448
23810SOL    HW283490   8.427   4.200   8.432
23811SOL     OW83491   7.822   5.234   8.039
23811SOL    HW183492   7.811   5.136   8.024
23811SOL    HW283493   7.733   5.276   8.056
23812SOL     OW83494   8.492   5.211   8.555
23812SOL    HW183495   8.409   5.220   8.499
23812SOL    HW283496   8.542   5.298   8.553
23813SOL     OW83497   7.568   5.482   9.232
23813SOL    HW183498   7.628   5.548   9.187
23813SOL    HW283499   7.621   5.426   9.295
23814SOL     OW83500   7.528   5.344   8.406
23814SOL    HW183501   7.503   5.250   8.427
23814SOL    HW283502   7.550   5.352   8.309
23815SOL     OW83503   8.146   4.876   7.609
23815SOL    HW183504   8.217   4.932   7.567
23815SOL    HW283505   8.182   4.784   7.625
23816SOL     OW83506   8.180   3.716   7.501
23816SOL    HW183507   8.269   3.670   7.497
23816SOL    HW283508   8.194   3.813   7.522
23817SOL     OW83509   9.146   4.820   8.724
23817SOL    HW183510   9.154   4.917   8.701
23817SOL    HW283511   9.212   4.768   8.671
23818SOL     OW83512   8.059   5.379   7.635
23818SOL    HW183513   7.996   5.442   7.588
23818SOL    HW283514   8.006   5.311   7.685
23819SOL     OW83515   8.721   4.841   8.811
23819SOL    HW183516   8.683   4.773   8.873
23819SOL    HW283517   8.649   4.904   8.781
23820SOL     OW83518   7.658   4.287   9.262
23820SOL    HW183519   7.689   4.229   9.187
23820SOL    HW283520   7.736   4.314   9.317
23821SOL     OW83521   9.022   5.257   8.463
23821SOL    HW183522   9.080   5.338   8.465
23821SOL    HW283523   9.055   5.190   8.529
23822SOL     OW83524   7.311   4.642   8.050
23822SOL    HW183525   7.332   4.716   7.987
23822SOL    HW283526   7.216   4.650   8.079
23823SOL     OW83527   7.943   4.595   9.010
23823SOL    HW183528   7.871   4.602   8.942
23823SOL    HW283529   8.029   4.629   8.972
23824SOL     OW83530   9.071   4.759   8.179
23824SOL    HW183531   9.061   4.849   8.136
23824SOL    HW283532   9.040   4.688   8.115
23825SOL     OW83533   8.117   5.081   8.575
23825SOL    HW183534   8.070   5.159   8.534
23825SOL    HW283535   8.087   5.070   8.670
23826SOL     OW83536   9.098   5.455   9.143
23826SOL    HW183537   9.068   5.361   9.159
23826SOL    HW283538   9.045   5.494   9.068
23827SOL     OW83539   8.585   4.383   8.781
23827SOL    HW183540   8.674   4.404   8.740
23827SOL    HW283541   8.512   4.427   8.728
23828SOL     OW83542   8.706   5.076   8.452
23828SOL    HW183543   8.627   5.123   8.490
23828SOL    HW283544   8.735   5.121   8.367
23829SOL     OW83545   9.093   5.033   9.710
23829SOL    HW183546   9.100   5.112   9.771
23829SOL    HW283547   9.179   4.981   9.713
23830SOL     OW83548   7.735   3.922   9.234
23830SOL    HW183549   7.661   3.885   9.178
23830SOL    HW283550   7.778   3.999   9.187
23831SOL     OW83551   7.965   5.228   9.654
23831SOL    HW183552   7.908   5.254   9.732
23831SOL    HW283553   8.023   5.150   9.680
23832SOL     OW83554   7.911   3.752   9.364
23832SOL    HW183555   8.003   3.791   9.360
23832SOL    HW283556   7.848   3.811   9.313
23833SOL     OW83557   7.795   4.963   9.906
23833SOL    HW183558   7.721   4.942   9.971
23833SOL    HW283559   7.878   4.985   9.957
23834SOL     OW83560   8.146   4.295   9.749
23834SOL    HW183561   8.143   4.375   9.809
23834SOL    HW283562   8.148   4.325   9.654
23835SOL     OW83563   7.828   5.070   9.472
23835SOL    HW183564   7.788   5.126   9.399
23835SOL    HW283565   7.885   5.127   9.530
23836SOL     OW83566   7.737   4.481   9.787
23836SOL    HW183567   7.762   4.437   9.873
23836SOL    HW283568   7.649   4.528   9.798
23837SOL     OW83569   8.301   5.567   9.765
23837SOL    HW183570   8.286   5.478   9.809
23837SOL    HW283571   8.228   5.584   9.698
23838SOL     OW83572   9.193   5.359   9.603
23838SOL    HW183573   9.282   5.313   9.595
23838SOL    HW283574   9.187   5.431   9.534
23839SOL     OW83575   8.467   4.007   9.578
23839SOL    HW183576   8.512   4.095   9.590
23839SOL    HW283577   8.468   3.956   9.664
23840SOL     OW83578   7.892   4.346   9.393
23840SOL    HW183579   7.903   4.443   9.373
23840SOL    HW283580   7.953   4.292   9.334
23841SOL     OW83581   7.656   4.996   9.673
23841SOL    HW183582   7.707   4.977   9.756
23841SOL    HW283583   7.720   5.008   9.597
23842SOL     OW83584   8.583   3.982   9.321
23842SOL    HW183585   8.660   3.919   9.333
23842SOL    HW283586   8.529   3.984   9.405
23843SOL     OW83587   7.787   3.985   9.730
23843SOL    HW183588   7.768   4.074   9.688
23843SOL    HW283589   7.725   3.917   9.692
23844SOL     OW83590   9.211   5.415   0.314
23844SOL    HW183591   9.227   5.485   0.384
23844SOL    HW283592   9.275   5.428   0.238
23845SOL     OW83593   8.352   4.141   9.852
23845SOL    HW183594   8.414   4.196   9.908
23845SOL    HW283595   8.283   4.200   9.811
23846SOL     OW83596   9.140   4.366   9.601
23846SOL    HW183597   9.100   4.274   9.598
23846SOL    HW283598   9.204   4.372   9.678
23847SOL     OW83599   7.458   4.315   9.767
23847SOL    HW183600   7.429   4.287   9.858
23847SOL    HW283601   7.485   4.411   9.769
23848SOL     OW83602   7.528   5.227   9.583
23848SOL    HW183603   7.563   5.138   9.614
23848SOL    HW283604   7.591   5.267   9.517
23849SOL     OW83605   7.540   5.344   9.834
23849SOL    HW183606   7.448   5.335   9.874
23849SOL    HW283607   7.536   5.319   9.737
23850SOL     OW83608   7.938   4.600   9.296
23850SOL    HW183609   7.923   4.618   9.199
23850SOL    HW283610   7.929   4.686   9.347
23851SOL     OW83611   7.475   4.449   9.393
23851SOL    HW183612   7.534   4.388   9.341
23851SOL    HW283613   7.405   4.395   9.440
23852SOL     OW83614   8.960   4.570   9.649
23852SOL    HW183615   9.020   4.493   9.627
23852SOL    HW283616   8.981   4.647   9.589
23853SOL     OW83617   8.190   4.497   9.271
23853SOL    HW183618   8.212   4.441   9.352
23853SOL    HW283619   8.103   4.544   9.287
23854SOL     OW83620   8.783   4.089   9.672
23854SOL    HW183621   8.723   4.150   9.620
23854SOL    HW283622   8.878   4.109   9.650
23855SOL     OW83623   9.062   4.103   9.655
23855SOL    HW183624   9.151   4.058   9.649
23855SOL    HW283625   9.041   4.124   9.750
23856SOL     OW83626   8.211   4.066   9.504
23856SOL    HW183627   8.146   4.027   9.569
23856SOL    HW283628   8.304   4.040   9.531
23857SOL     OW83629   8.357   4.953   9.312
23857SOL    HW183630   8.308   5.040   9.317
23857SOL    HW283631   8.411   4.949   9.229
23858SOL     OW83632   9.137   5.276   9.856
23858SOL    HW183633   9.089   5.346   9.909
23858SOL    HW283634   9.151   5.309   9.762
23859SOL     OW83635   8.481   4.525   9.846
23859SOL    HW183636   8.472   4.607   9.902
23859SOL    HW283637   8.405   4.520   9.781
23860SOL     OW83638   7.450   4.056   9.666
23860SOL    HW183639   7.514   4.038   9.591
23860SOL    HW283640   7.471   4.144   9.707
23861SOL     OW83641   9.170   5.545   9.401
23861SOL    HW183642   9.260   5.588   9.397
23861SOL    HW283643   9.148   5.504   9.312
23862SOL     OW83644   8.240   4.578   9.621
23862SOL    HW183645   8.144   4.584   9.649
23862SOL    HW283646   8.254   4.494   9.570
23863SOL     OW83647   7.718   5.359   9.427
23863SOL    HW183648   7.816   5.351   9.410
23863SOL    HW283649   7.701   5.430   9.494
23864SOL     OW83650   8.191   3.694   9.634
23864SOL    HW183651   8.146   3.635   9.568
23864SOL    HW283652   8.138   3.778   9.645
23865SOL     OW83653   7.432   4.839   9.718
23865SOL    HW183654   7.504   4.908   9.714
23865SOL    HW283655   7.430   4.787   9.633
23866SOL     OW83656   8.790   3.810   9.412
23866SOL    HW183657   8.793   3.714   9.384
23866SOL    HW283658   8.757   3.817   9.506
23867SOL     OW83659   8.158   3.966   9.926
23867SOL    HW183660   8.182   3.906   0.001
23867SOL    HW283661   8.236   4.024   9.902
23868SOL     OW83662   8.977   3.712   9.684
23868SOL    HW183663   9.003   3.668   9.598
23868SOL    HW283664   8.885   3.751   9.675
23869SOL     OW83665   8.717   4.437   9.705
23869SOL    HW183666   8.650   4.485   9.761
23869SOL    HW283667   8.797   4.496   9.691
23870SOL     OW83668   9.025   4.579   9.915
23870SOL    HW183669   8.993   4.591   9.821
23870SOL    HW283670   8.997   4.489   9.949
23871SOL     OW83671   9.011   3.985   9.398
23871SOL    HW183672   9.028   4.017   9.491
23871SOL    HW283673   8.934   3.921   9.399
23872SOL     OW83674   7.744   4.234   9.599
23872SOL    HW183675   7.806   4.273   9.530
23872SOL    HW283676   7.721   4.304   9.666
23873SOL     OW83677   7.715   5.519   9.961
23873SOL    HW183678   7.638   5.479   9.912
23873SOL    HW283679   7.796   5.461   9.949
23874SOL     OW83680   8.084   4.991   9.718
23874SOL    HW183681   8.143   4.950   9.648
23874SOL    HW283682   8.030   4.920   9.763
23875SOL     OW83683   7.619   4.020   9.460
23875SOL    HW183684   7.665   3.985   9.379
23875SOL    HW283685   7.663   4.105   9.490
23876SOL     OW83686   7.378   4.262   0.020
23876SOL    HW183687   7.382   4.351   0.065
23876SOL    HW283688   7.418   4.193   0.080
23877SOL     OW83689   7.939   4.816   9.463
23877SOL    HW183690   8.037   4.827   9.480
23877SOL    HW283691   7.895   4.907   9.462
23878SOL     OW83692   8.495   4.377   9.328
23878SOL    HW183693   8.473   4.458   9.274
23878SOL    HW283694   8.560   4.321   9.278
23879SOL     OW83695   8.265   4.335   9.478
23879SOL    HW183696   8.354   4.342   9.433
23879SOL    HW283697   8.239   4.239   9.486
23880SOL     OW83698   8.727   3.827   9.676
23880SOL    HW183699   8.643   3.810   9.728
23880SOL    HW283700   8.750   3.924   9.681
23881SOL     OW83701   7.454   3.780   9.410
23881SOL    HW183702   7.529   3.715   9.419
23881SOL    HW283703   7.488   3.873   9.427
23882SOL     OW83704   9.049   4.743   9.454
23882SOL    HW183705   9.135   4.794   9.460
23882SOL    HW283706   9.011   4.752   9.361
23883SOL     OW83707   8.495   3.827   9.822
23883SOL    HW183708   8.494   3.875   9.910
23883SOL    HW283709   8.439   3.745   9.829
23884SOL     OW83710   7.641   3.739   9.689
23884SOL    HW183711   7.685   3.710   9.774
23884SOL    HW283712   7.544   3.754   9.706
23885SOL     OW83713   7.488   4.700   9.489
23885SOL    HW183714   7.485   4.605   9.458
23885SOL    HW283715   7.575   4.741   9.462
23886SOL     OW83716   9.109   3.907   0.036
23886SOL    HW183717   9.066   3.943   0.119
23886SOL    HW283718   9.190   3.854   0.061
23887SOL     OW83719   8.599   4.253   9.554
23887SOL    HW183720   8.639   4.322   9.613
23887SOL    HW283721   8.563   4.296   9.472
23888SOL     OW83722   8.178   5.164   9.304
23888SOL    HW183723   8.123   5.237   9.344
23888SOL    HW283724   8.122   5.112   9.239
23889SOL     OW83725   7.963   4.602   9.658
23889SOL    HW183726   7.931   4.667   9.589
23889SOL    HW283727   7.884   4.553   9.696
23890SOL     OW83728   7.384   3.799   9.742
23890SOL    HW183729   7.288   3.778   9.727
23890SOL    HW283730   7.400   3.896   9.729
23891SOL     OW83731   7.793   5.246   9.870
23891SOL    HW183732   7.793   5.147   9.884
23891SOL    HW283733   7.699   5.278   9.860
23892SOL     OW83734   9.043   4.147   9.924
23892SOL    HW183735   9.114   4.203   9.966
23892SOL    HW283736   9.053   4.052   9.955
23893SOL     OW83737   8.207   4.840   9.519
23893SOL    HW183738   8.269   4.875   9.449
23893SOL    HW283739   8.240   4.751   9.551
23894SOL     OW83740   8.165   3.858   9.325
23894SOL    HW183741   8.240   3.795   9.346
23894SOL    HW283742   8.176   3.942   9.377
23895SOL     OW83743   7.974   4.185   9.938
23895SOL    HW183744   8.017   4.097   9.961
23895SOL    HW283745   8.024   4.227   9.862
23896SOL     OW83746   7.993   5.347   9.405
23896SOL    HW183747   7.997   5.446   9.393
23896SOL    HW283748   8.002   5.325   9.503
23897SOL     OW83749   7.481   4.587   9.826
23897SOL    HW183750   7.478   4.682   9.793
23897SOL    HW283751   7.391   4.562   9.864
23898SOL     OW83752   8.051   3.929   9.681
23898SOL    HW183753   7.953   3.946   9.688
23898SOL    HW283754   8.093   3.941   9.771
23899SOL     OW83755   8.932   3.710   9.961
23899SOL    HW183756   8.937   3.703   9.862
23899SOL    HW283757   8.997   3.778   9.994
23900SOL     OW83758   8.758   4.182   9.936
23900SOL    HW183759   8.748   4.146   9.844
23900SOL    HW283760   8.855   4.177   9.963
23901SOL     OW83761   8.557   6.997   0.601
23901SOL    HW183762   8.466   6.987   0.642
23901SOL    HW283763   8.547   7.014   0.503
23902SOL     OW83764   8.986   6.811   0.625
23902SOL    HW183765   8.993   6.910   0.612
23902SOL    HW283766   9.071   6.768   0.595
23903SOL     OW83767   9.053   6.140   1.416
23903SOL    HW183768   9.042   6.059   1.473
23903SOL    HW283769   9.091   6.215   1.470
23904SOL     OW83770   7.827   5.762   0.035
23904SOL    HW183771   7.787   5.682   9.991
23904SOL    HW283772   7.908   5.790   9.984
23905SOL     OW83773   8.623   5.597   1.351
23905SOL    HW183774   8.536   5.560   1.383
23905SOL    HW283775   8.662   5.535   1.283
23906SOL     OW83776   8.366   6.419   1.742
23906SOL    HW183777   8.346   6.346   1.677
23906SOL    HW283778   8.283   6.443   1.792
23907SOL     OW83779   8.089   7.059   0.373
23907SOL    HW183780   8.021   7.041   0.445
23907SOL    HW283781   8.154   6.983   0.370
23908SOL     OW83782   7.954   5.544   0.184
23908SOL    HW183783   8.045   5.574   0.154
23908SOL    HW283784   7.887   5.614   0.161
23909SOL     OW83785   8.981   6.596   1.555
23909SOL    HW183786   8.885   6.618   1.537
23909SOL    HW283787   9.037   6.625   1.477
23910SOL     OW83788   8.863   6.524   1.271
23910SOL    HW183789   8.799   6.575   1.328
23910SOL    HW283790   8.954   6.565   1.276
23911SOL     OW83791   8.127   6.119   0.577
23911SOL    HW183792   8.168   6.177   0.507
23911SOL    HW283793   8.092   6.036   0.534
23912SOL     OW83794   8.652   6.066   1.772
23912SOL    HW183795   8.745   6.041   1.799
23912SOL    HW283796   8.591   5.988   1.786
23913SOL     OW83797   7.883   5.793   0.993
23913SOL    HW183798   7.935   5.878   0.986
23913SOL    HW283799   7.939   5.717   0.962
23914SOL     OW83800   9.222   7.089   0.302
23914SOL    HW183801   9.268   7.027   0.239
23914SOL    HW283802   9.176   7.161   0.251
23915SOL     OW83803   9.086   5.853   1.127
23915SOL    HW183804   9.127   5.943   1.141
23915SOL    HW283805   8.988   5.863   1.113
23916SOL     OW83806   8.472   5.885   0.332
23916SOL    HW183807   8.529   5.967   0.328
23916SOL    HW283808   8.476   5.846   0.424
23917SOL     OW83809   7.579   6.536   1.623
23917SOL    HW183810   7.667   6.573   1.653
23917SOL    HW283811   7.530   6.498   1.702
23918SOL     OW83812   7.873   6.295   0.093
23918SOL    HW183813   7.896   6.367   0.028
23918SOL    HW283814   7.921   6.211   0.068
23919SOL     OW83815   8.347   6.176   1.601
23919SOL    HW183816   8.380   6.092   1.645
23919SOL    HW283817   8.421   6.215   1.545
23920SOL     OW83818   9.020   7.058   0.878
23920SOL    HW183819   9.096   7.022   0.932
23920SOL    HW283820   9.050   7.074   0.784
23921SOL     OW83821   8.558   5.762   0.089
23921SOL    HW183822   8.654   5.746   0.111
23921SOL    HW283823   8.515   5.815   0.162
23922SOL     OW83824   7.782   6.063   1.238
23922SOL    HW183825   7.769   5.963   1.235
23922SOL    HW283826   7.730   6.100   1.315
23923SOL     OW83827   8.811   6.270   1.378
23923SOL    HW183828   8.824   6.358   1.334
23923SOL    HW283829   8.898   6.221   1.382
23924SOL     OW83830   7.778   5.822   0.457
23924SOL    HW183831   7.723   5.856   0.533
23924SOL    HW283832   7.740   5.853   0.371
23925SOL     OW83833   9.175   6.105   1.175
23925SOL    HW183834   9.251   6.169   1.164
23925SOL    HW283835   9.131   6.121   1.264
23926SOL     OW83836   8.320   5.985   0.734
23926SOL    HW183837   8.398   6.033   0.774
23926SOL    HW283838   8.262   6.050   0.686
23927SOL     OW83839   8.593   6.584   0.190
23927SOL    HW183840   8.589   6.502   0.246
23927SOL    HW283841   8.500   6.617   0.173
23928SOL     OW83842   8.465   5.866   1.807
23928SOL    HW183843   8.491   5.856   1.903
23928SOL    HW283844   8.375   5.825   1.791
23929SOL     OW83845   9.062   6.169   0.322
23929SOL    HW183846   9.045   6.081   0.279
23929SOL    HW283847   9.105   6.156   0.411
23930SOL     OW83848   8.213   5.604   1.702
23930SOL    HW183849   8.223   5.506   1.690
23930SOL    HW283850   8.227   5.628   1.798
23931SOL     OW83851   9.075   6.188   0.937
23931SOL    HW183852   9.022   6.271   0.951
23931SOL    HW283853   9.106   6.153   1.026
23932SOL     OW83854   8.459   6.828   1.786
23932SOL    HW183855   8.519   6.754   1.756
23932SOL    HW283856   8.366   6.812   1.751
23933SOL     OW83857   8.179   6.688   1.727
23933SOL    HW183858   8.106   6.757   1.729
23933SOL    HW283859   8.163   6.621   1.799
23934SOL     OW83860   8.776   5.503   0.913
23934SOL    HW183861   8.733   5.593   0.906
23934SOL    HW283862   8.865   5.505   0.867
23935SOL     OW83863   9.122   5.754   1.776
23935SOL    HW183864   9.079   5.765   1.865
23935SOL    HW283865   9.077   5.679   1.727
23936SOL     OW83866   7.637   5.720   0.856
23936SOL    HW183867   7.715   5.756   0.906
23936SOL    HW283868   7.647   5.620   0.847
23937SOL     OW83869   7.749   5.780   1.233
23937SOL    HW183870   7.737   5.684   1.258
23937SOL    HW283871   7.794   5.787   1.144
23938SOL     OW83872   8.921   7.013   1.301
23938SOL    HW183873   8.888   7.041   1.211
23938SOL    HW283874   8.844   6.983   1.357
23939SOL     OW83875   7.642   7.092   0.581
23939SOL    HW183876   7.549   7.055   0.583
23939SOL    HW283877   7.638   7.190   0.562
23940SOL     OW83878   9.170   6.915   1.308
23940SOL    HW183879   9.210   6.937   1.397
23940SOL    HW283880   9.079   6.957   1.301
23941SOL     OW83881   7.982   6.465   9.907
23941SOL    HW183882   7.945   6.460   9.814
23941SOL    HW283883   8.050   6.537   9.912
23942SOL     OW83884   8.474   6.563   1.370
23942SOL    HW183885   8.557   6.607   1.403
23942SOL    HW283886   8.464   6.581   1.272
23943SOL     OW83887   8.940   6.417   0.322
23943SOL    HW183888   8.978   6.325   0.315
23943SOL    HW283889   8.991   6.479   0.263
23944SOL     OW83890   8.213   6.371   0.056
23944SOL    HW183891   8.248   6.287   0.098
23944SOL    HW283892   8.124   6.353   0.015
23945SOL     OW83893   8.776   5.976   0.461
23945SOL    HW183894   8.737   6.029   0.386
23945SOL    HW283895   8.876   5.982   0.457
23946SOL     OW83896   7.643   6.147   1.479
23946SOL    HW183897   7.606   6.058   1.452
23946SOL    HW283898   7.632   6.158   1.578
23947SOL     OW83899   7.565   5.892   1.414
23947SOL    HW183900   7.631   5.847   1.353
23947SOL    HW283901   7.472   5.867   1.387
23948SOL     OW83902   9.051   5.925   0.506
23948SOL    HW183903   9.148   5.916   0.484
23948SOL    HW283904   9.040   5.946   0.603
23949SOL     OW83905   8.214   5.893   0.250
23949SOL    HW183906   8.150   5.890   0.327
23949SOL    HW283907   8.308   5.887   0.285
23950SOL     OW83908   8.394   6.774   0.104
23950SOL    HW183909   8.353   6.811   0.187
23950SOL    HW283910   8.457   6.842   0.065
23951SOL     OW83911   9.070   7.065   0.544
23951SOL    HW183912   9.039   7.159   0.550
23951SOL    HW283913   9.130   7.054   0.464
23952SOL     OW83914   8.636   6.439   0.616
23952SOL    HW183915   8.673   6.531   0.614
23952SOL    HW283916   8.536   6.443   0.625
23953SOL     OW83917   8.218   7.120   1.640
23953SOL    HW183918   8.156   7.066   1.583
23953SOL    HW283919   8.221   7.081   1.732
23954SOL     OW83920   8.352   6.458   0.580
23954SOL    HW183921   8.333   6.398   0.502
23954SOL    HW283922   8.297   6.429   0.658
23955SOL     OW83923   8.702   6.940   1.454
23955SOL    HW183924   8.743   6.995   1.527
23955SOL    HW283925   8.634   6.995   1.406
23956SOL     OW83926   7.455   5.884   0.415
23956SOL    HW183927   7.519   5.893   0.339
23956SOL    HW283928   7.504   5.893   0.502
23957SOL     OW83929   9.125   7.299   0.147
23957SOL    HW183930   9.202   7.363   0.154
23957SOL    HW283931   9.091   7.298   0.053
23958SOL     OW83932   8.170   6.278   1.409
23958SOL    HW183933   8.182   6.376   1.429
23958SOL    HW283934   8.233   6.225   1.465
23959SOL     OW83935   7.417   7.348   1.438
23959SOL    HW183936   7.396   7.439   1.473
23959SOL    HW283937   7.414   7.282   1.513
23960SOL     OW83938   8.245   6.285   0.392
23960SOL    HW183939   8.152   6.317   0.370
23960SOL    HW283940   8.284   6.239   0.313
23961SOL     OW83941   7.719   6.172   0.986
23961SOL    HW183942   7.790   6.177   0.915
23961SOL    HW283943   7.757   6.128   1.067
23962SOL     OW83944   8.673   7.295   1.152
23962SOL    HW183945   8.678   7.367   1.082
23962SOL    HW283946   8.731   7.218   1.124
23963SOL     OW83947   8.085   5.575   0.432
23963SOL    HW183948   8.028   5.559   0.351
23963SOL    HW283949   8.087   5.673   0.452
23964SOL     OW83950   8.981   5.891   1.549
23964SOL    HW183951   8.892   5.934   1.537
23964SOL    HW283952   9.006   5.893   1.646
23965SOL     OW83953   8.675   5.757   0.909
23965SOL    HW183954   8.684   5.817   0.829
23965SOL    HW283955   8.720   5.800   0.988
23966SOL     OW83956   8.792   5.700   0.229
23966SOL    HW183957   8.850   5.619   0.219
23966SOL    HW283958   8.750   5.700   0.320
23967SOL     OW83959   8.980   5.592   1.576
23967SOL    HW183960   8.973   5.541   1.491
23967SOL    HW283961   8.949   5.687   1.561
23968SOL     OW83962   8.119   5.799   0.713
23968SOL    HW183963   8.102   5.728   0.782
23968SOL    HW283964   8.202   5.850   0.737
23969SOL     OW83965   8.949   5.578   0.501
23969SOL    HW183966   8.951   5.536   0.410
23969SOL    HW283967   8.862   5.626   0.513
23970SOL     OW83968   7.956   6.885   1.791
23970SOL    HW183969   7.907   6.956   1.741
23970SOL    HW283970   8.042   6.923   1.826
23971SOL     OW83971   7.826   6.648   1.693
23971SOL    HW183972   7.872   6.621   1.608
23971SOL    HW283973   7.860   6.737   1.722
23972SOL     OW83974   7.494   6.938   1.115
23972SOL    HW183975   7.499   6.856   1.058
23972SOL    HW283976   7.410   6.935   1.169
23973SOL     OW83977   8.544   6.105   0.826
23973SOL    HW183978   8.620   6.049   0.794
23973SOL    HW283979   8.578   6.193   0.859
23974SOL     OW83980   9.129   6.155   1.743
23974SOL    HW183981   9.132   6.233   1.680
23974SOL    HW283982   9.222   6.134   1.773
23975SOL     OW83983   8.822   5.919   1.087
23975SOL    HW183984   8.805   6.015   1.067
23975SOL    HW283985   8.776   5.894   1.173
23976SOL     OW83986   8.913   6.004   1.823
23976SOL    HW183987   8.990   6.063   1.798
23976SOL    HW283988   8.941   5.941   1.895
23977SOL     OW83989   8.670   6.371   0.354
23977SOL    HW183990   8.653   6.384   0.452
23977SOL    HW283991   8.767   6.389   0.335
23978SOL     OW83992   8.974   6.426   0.597
23978SOL    HW183993   8.952   6.435   0.500
23978SOL    HW283994   8.915   6.358   0.639
23979SOL     OW83995   9.140   6.360   1.553
23979SOL    HW183996   9.072   6.433   1.545
23979SOL    HW283997   9.232   6.400   1.552
23980SOL     OW83998   9.001   5.885   0.244
23980SOL    HW183999   9.020   5.884   0.342
23980SOL    HW284000   8.918   5.832   0.225
23981SOL     OW84001   8.030   6.986   1.495
23981SOL    HW184002   7.976   7.067   1.472
23981SOL    HW284003   8.009   6.913   1.431
23982SOL     OW84004   7.543   5.859   1.692
23982SOL    HW184005   7.550   5.867   1.592
23982SOL    HW284006   7.450   5.834   1.717
23983SOL     OW84007   7.425   7.183   1.658
23983SOL    HW184008   7.508   7.212   1.708
23983SOL    HW284009   7.352   7.164   1.724
23984SOL     OW84010   7.595   5.894   0.649
23984SOL    HW184011   7.566   5.976   0.699
23984SOL    HW284012   7.612   5.820   0.714
23985SOL     OW84013   8.807   7.139   1.610
23985SOL    HW184014   8.721   7.182   1.639
23985SOL    HW284015   8.867   7.209   1.571
23986SOL     OW84016   7.655   6.177   0.205
23986SOL    HW184017   7.730   6.221   0.154
23986SOL    HW284018   7.660   6.205   0.301
23987SOL     OW84019   9.173   5.782   1.382
23987SOL    HW184020   9.103   5.819   1.443
23987SOL    HW284021   9.143   5.793   1.287
23988SOL     OW84022   7.834   7.356   0.728
23988SOL    HW184023   7.756   7.349   0.666
23988SOL    HW284024   7.909   7.300   0.694
23989SOL     OW84025   7.705   6.856   1.271
23989SOL    HW184026   7.698   6.881   1.367
23989SOL    HW284027   7.634   6.903   1.219
23990SOL     OW84028   8.530   7.087   1.871
23990SOL    HW184029   8.507   6.997   1.835
23990SOL    HW284030   8.550   7.149   1.795
23991SOL     OW84031   8.153   6.630   0.472
23991SOL    HW184032   8.198   6.708   0.429
23991SOL    HW284033   8.222   6.573   0.518
23992SOL     OW84034   7.669   5.899   0.216
23992SOL    HW184035   7.733   5.860   0.151
23992SOL    HW284036   7.663   5.998   0.202
23993SOL     OW84037   7.514   6.085   0.821
23993SOL    HW184038   7.426   6.127   0.841
23993SOL    HW284039   7.584   6.120   0.883
23994SOL     OW84040   8.546   6.146   9.996
23994SOL    HW184041   8.540   6.232   9.946
23994SOL    HW284042   8.629   6.097   9.967
23995SOL     OW84043   8.319   6.146   0.169
23995SOL    HW184044   8.401   6.137   0.112
23995SOL    HW284045   8.276   6.056   0.178
23996SOL     OW84046   8.709   5.716   0.492
23996SOL    HW184047   8.620   5.711   0.538
23996SOL    HW284048   8.737   5.812   0.485
23997SOL     OW84049   8.748   6.035   1.518
23997SOL    HW184050   8.708   6.055   1.607
23997SOL    HW284051   8.759   6.120   1.466
23998SOL     OW84052   7.521   5.676   0.116
23998SOL    HW184053   7.583   5.610   0.072
23998SOL    HW284054   7.575   5.747   0.162
23999SOL     OW84055   7.584   6.617   1.201
23999SOL    HW184056   7.604   6.542   1.265
23999SOL    HW284057   7.638   6.697   1.227
24000SOL     OW84058   9.113   6.551   0.135
24000SOL    HW184059   9.173   6.476   0.162
24000SOL    HW284060   9.066   6.527   0.050
24001SOL     OW84061   8.040   6.154   1.201
24001SOL    HW184062   8.085   6.204   1.275
24001SOL    HW284063   7.946   6.133   1.227
24002SOL     OW84064   8.226   6.540   1.493
24002SOL    HW184065   8.316   6.551   1.451
24002SOL    HW284066   8.221   6.596   1.576
24003SOL     OW84067   8.575   6.592   1.690
24003SOL    HW184068   8.491   6.539   1.701
24003SOL    HW284069   8.654   6.538   1.720
24004SOL     OW84070   8.458   5.782   0.600
24004SOL    HW184071   8.413   5.863   0.636
24004SOL    HW284072   8.447   5.706   0.665
24005SOL     OW84073   8.583   7.275   1.681
24005SOL    HW184074   8.510   7.294   1.614
24005SOL    HW284075   8.610   7.360   1.725
24006SOL     OW84076   8.057   5.604   0.899
24006SOL    HW184077   8.018   5.529   0.847
24006SOL    HW284078   8.144   5.576   0.939
24007SOL     OW84079   7.663   7.275   1.337
24007SOL    HW184080   7.647   7.242   1.244
24007SOL    HW284081   7.575   7.300   1.379
24008SOL     OW84082   7.359   6.482   1.126
24008SOL    HW184083   7.437   6.544   1.135
24008SOL    HW284084   7.392   6.387   1.121
24009SOL     OW84085   7.655   5.567   0.428
24009SOL    HW184086   7.713   5.645   0.453
24009SOL    HW284087   7.562   5.583   0.459
24010SOL     OW84088   8.049   6.167   1.712
24010SOL    HW184089   7.992   6.223   1.651
24010SOL    HW284090   8.144   6.172   1.682
24011SOL     OW84091   9.155   5.756   0.880
24011SOL    HW184092   9.134   5.777   0.975
24011SOL    HW284093   9.252   5.734   0.871
24012SOL     OW84094   8.631   6.112   0.270
24012SOL    HW184095   8.637   6.205   0.304
24012SOL    HW284096   8.613   6.113   0.171
24013SOL     OW84097   8.990   6.965   1.709
24013SOL    HW184098   8.952   6.883   1.751
24013SOL    HW284099   8.916   7.019   1.668
24014SOL     OW84100   7.605   6.402   1.386
24014SOL    HW184101   7.613   6.307   1.415
24014SOL    HW284102   7.604   6.462   1.465
24015SOL     OW84103   8.318   6.876   0.352
24015SOL    HW184104   8.375   6.957   0.334
24015SOL    HW284105   8.370   6.812   0.409
24016SOL     OW84106   7.428   6.448   1.830
24016SOL    HW184107   7.329   6.449   1.814
24016SOL    HW284108   7.448   6.387   1.907
24017SOL     OW84109   8.373   7.304   1.500
24017SOL    HW184110   8.332   7.221   1.538
24017SOL    HW284111   8.313   7.382   1.518
24018SOL     OW84112   7.962   5.906   1.737
24018SOL    HW184113   8.015   5.859   1.666
24018SOL    HW284114   7.989   6.002   1.740
24019SOL     OW84115   7.986   6.350   0.343
24019SOL    HW184116   7.981   6.447   0.367
24019SOL    HW284117   7.942   6.335   0.254
24020SOL     OW84118   8.936   6.416   1.008
24020SOL    HW184119   8.953   6.491   0.945
24020SOL    HW284120   8.902   6.452   1.095
24021SOL     OW84121   8.700   5.856   1.314
24021SOL    HW184122   8.706   5.911   1.397
24021SOL    HW284123   8.669   5.764   1.337
24022SOL     OW84124   7.375   5.623   0.453
24022SOL    HW184125   7.278   5.615   0.477
24022SOL    HW284126   7.397   5.718   0.434
24023SOL     OW84127   8.659   5.662   1.779
24023SOL    HW184128   8.704   5.659   1.868
24023SOL    HW284129   8.595   5.739   1.778
24024SOL     OW84130   7.808   7.098   1.694
24024SOL    HW184131   7.748   7.159   1.746
24024SOL    HW284132   7.851   7.149   1.619
24025SOL     OW84133   9.232   6.972   1.574
24025SOL    HW184134   9.267   7.065   1.589
24025SOL    HW284135   9.144   6.963   1.620
24026SOL     OW84136   7.902   7.007   0.569
24026SOL    HW184137   7.907   6.917   0.614
24026SOL    HW284138   7.807   7.040   0.571
24027SOL     OW84139   8.558   7.141   1.349
24027SOL    HW184140   8.486   7.195   1.394
24027SOL    HW284141   8.597   7.195   1.274
24028SOL     OW84142   7.634   7.280   1.814
24028SOL    HW184143   7.659   7.375   1.799
24028SOL    HW284144   7.646   7.257   1.910
24029SOL     OW84145   7.490   6.794   1.677
24029SOL    HW184146   7.501   6.699   1.648
24029SOL    HW284147   7.420   6.838   1.621
24030SOL     OW84148   7.589   7.192   1.080
24030SOL    HW184149   7.557   7.098   1.088
24030SOL    HW284150   7.643   7.202   0.997
24031SOL     OW84151   8.435   5.626   0.825
24031SOL    HW184152   8.512   5.666   0.874
24031SOL    HW284153   8.384   5.566   0.886
24032SOL     OW84154   8.460   6.702   0.500
24032SOL    HW184155   8.552   6.717   0.536
24032SOL    HW284156   8.427   6.613   0.533
24033SOL     OW84157   9.020   5.972   0.775
24033SOL    HW184158   9.039   6.053   0.830
24033SOL    HW284159   9.069   5.893   0.812
24034SOL     OW84160   8.191   5.652   0.118
24034SOL    HW184161   8.273   5.596   0.130
24034SOL    HW284162   8.202   5.739   0.166
24035SOL     OW84163   7.930   6.153   0.803
24035SOL    HW184164   7.980   6.093   0.865
24035SOL    HW284165   7.965   6.142   0.710
24036SOL     OW84166   7.956   6.572   1.464
24036SOL    HW184167   8.053   6.550   1.474
24036SOL    HW284168   7.946   6.649   1.402
24037SOL     OW84169   9.106   6.648   1.314
24037SOL    HW184170   9.126   6.746   1.310
24037SOL    HW284171   9.172   6.599   1.258
24038SOL     OW84172   8.063   7.303   0.256
24038SOL    HW184173   8.118   7.296   0.173
24038SOL    HW284174   8.066   7.216   0.305
24039SOL     OW84175   8.714   6.669   1.468
24039SOL    HW184176   8.667   6.644   1.552
24039SOL    HW284177   8.713   6.769   1.458
24040SOL     OW84178   7.897   7.228   1.471
24040SOL    HW184179   7.951   7.312   1.479
24040SOL    HW284180   7.814   7.247   1.418
24041SOL     OW84181   7.602   6.128   1.751
24041SOL    HW184182   7.595   6.028   1.751
24041SOL    HW284183   7.684   6.154   1.803
24042SOL     OW84184   7.880   6.313   1.558
24042SOL    HW184185   7.807   6.266   1.509
24042SOL    HW284186   7.899   6.401   1.513
24043SOL     OW84187   8.999   6.601   0.808
24043SOL    HW184188   8.979   6.691   0.769
24043SOL    HW284189   8.992   6.532   0.736
24044SOL     OW84190   8.069   6.001   0.982
24044SOL    HW184191   8.164   5.984   0.957
24044SOL    HW284192   8.065   6.060   1.063
24045SOL     OW84193   7.965   6.794   1.299
24045SOL    HW184194   7.870   6.818   1.282
24045SOL    HW284195   8.015   6.792   1.212
24046SOL     OW84196   7.520   6.260   1.155
24046SOL    HW184197   7.561   6.314   1.228
24046SOL    HW284198   7.590   6.234   1.089
24047SOL     OW84199   7.687   6.916   1.531
24047SOL    HW184200   7.735   6.984   1.586
24047SOL    HW284201   7.619   6.869   1.587
24048SOL     OW84202   9.059   7.224   1.784
24048SOL    HW184203   9.038   7.127   1.774
24048SOL    HW284204   9.020   7.275   1.708
24049SOL     OW84205   8.735   6.694   0.560
24049SOL    HW184206   8.811   6.738   0.609
24049SOL    HW284207   8.743   6.713   0.462
24050SOL     OW84208   8.046   5.867   0.469
24050SOL    HW184209   7.948   5.852   0.460
24050SOL    HW284210   8.075   5.840   0.561
24051SOL     OW84211   9.011   5.543   0.773
24051SOL    HW184212   8.989   5.554   0.676
24051SOL    HW284213   9.058   5.625   0.806
24052SOL     OW84214   8.537   6.303   1.457
24052SOL    HW184215   8.633   6.288   1.433
24052SOL    HW284216   8.509   6.394   1.425
24053SOL     OW84217   8.169   6.337   0.743
24053SOL    HW184218   8.097   6.342   0.812
24053SOL    HW284219   8.151   6.258   0.683
24054SOL     OW84220   8.815   7.073   1.058
24054SOL    HW184221   8.747   7.009   1.021
24054SOL    HW284222   8.893   7.078   0.995
24055SOL     OW84223   8.751   5.959   0.731
24055SOL    HW184224   8.744   5.968   0.632
24055SOL    HW284225   8.847   5.961   0.758
24056SOL     OW84226   8.463   6.992   2.613
24056SOL    HW184227   8.558   7.021   2.609
24056SOL    HW284228   8.420   7.004   2.523
24057SOL     OW84229   8.972   6.825   2.408
24057SOL    HW184230   8.978   6.880   2.491
24057SOL    HW284231   9.059   6.778   2.392
24058SOL     OW84232   8.998   6.188   3.220
24058SOL    HW184233   8.934   6.132   3.272
24058SOL    HW284234   9.052   6.244   3.283
24059SOL     OW84235   7.756   5.755   1.822
24059SOL    HW184236   7.675   5.785   1.771
24059SOL    HW284237   7.835   5.810   1.794
24060SOL     OW84238   8.727   7.085   2.656
24060SOL    HW184239   8.738   7.182   2.678
24060SOL    HW284240   8.816   7.044   2.635
24061SOL     OW84241   8.640   5.555   3.112
24061SOL    HW184242   8.544   5.534   3.091
24061SOL    HW284243   8.700   5.496   3.059
24062SOL     OW84244   8.360   6.393   3.599
24062SOL    HW184245   8.339   6.332   3.522
24062SOL    HW284246   8.275   6.423   3.642
24063SOL     OW84247   7.948   7.012   2.269
24063SOL    HW184248   7.917   7.046   2.358
24063SOL    HW284249   8.016   6.941   2.282
24064SOL     OW84250   7.980   5.603   1.965
24064SOL    HW184251   8.070   5.647   1.963
24064SOL    HW284252   7.912   5.665   1.927
24065SOL     OW84253   8.973   6.585   3.392
24065SOL    HW184254   8.878   6.607   3.369
24065SOL    HW284255   9.033   6.613   3.316
24066SOL     OW84256   8.813   6.591   3.073
24066SOL    HW184257   8.769   6.594   3.163
24066SOL    HW284258   8.854   6.680   3.053
24067SOL     OW84259   8.376   6.886   3.316
24067SOL    HW184260   8.289   6.935   3.316
24067SOL    HW284261   8.369   6.805   3.258
24068SOL     OW84262   7.864   6.769   2.573
24068SOL    HW184263   7.811   6.720   2.642
24068SOL    HW284264   7.959   6.741   2.578
24069SOL     OW84265   8.133   6.147   2.413
24069SOL    HW184266   8.153   6.220   2.347
24069SOL    HW284267   8.106   6.064   2.364
24070SOL     OW84268   8.648   6.060   3.573
24070SOL    HW184269   8.741   6.043   3.608
24070SOL    HW284270   8.594   5.976   3.580
24071SOL     OW84271   7.803   6.915   2.031
24071SOL    HW184272   7.857   6.923   1.947
24071SOL    HW284273   7.848   6.968   2.104
24072SOL     OW84274   7.688   6.299   2.318
24072SOL    HW184275   7.681   6.324   2.414
24072SOL    HW284276   7.602   6.319   2.271
24073SOL     OW84277   8.165   7.245   2.446
24073SOL    HW184278   8.215   7.161   2.423
24073SOL    HW284279   8.202   7.321   2.392
24074SOL     OW84280   9.162   7.158   2.244
24074SOL    HW184281   9.249   7.113   2.222
24074SOL    HW284282   9.116   7.185   2.159
24075SOL     OW84283   9.054   5.853   2.950
24075SOL    HW184284   9.087   5.946   2.966
24075SOL    HW284285   8.954   5.854   2.943
24076SOL     OW84286   8.446   5.863   2.298
24076SOL    HW184287   8.438   5.948   2.351
24076SOL    HW284288   8.465   5.787   2.359
24077SOL     OW84289   7.570   6.577   3.448
24077SOL    HW184290   7.663   6.603   3.474
24077SOL    HW284291   7.523   6.539   3.528
24078SOL     OW84292   7.833   6.212   1.887
24078SOL    HW184293   7.835   6.312   1.898
24078SOL    HW284294   7.913   6.183   1.835
24079SOL     OW84295   8.070   7.161   2.691
24079SOL    HW184296   8.116   7.202   2.612
24079SOL    HW284297   7.990   7.110   2.660
24080SOL     OW84298   8.355   6.173   3.416
24080SOL    HW184299   8.395   6.096   3.465
24080SOL    HW284300   8.424   6.214   3.357
24081SOL     OW84301   8.989   6.976   2.646
24081SOL    HW184302   8.998   6.999   2.743
24081SOL    HW284303   9.052   7.033   2.593
24082SOL     OW84304   7.702   6.749   2.350
24082SOL    HW184305   7.759   6.759   2.431
24082SOL    HW284306   7.754   6.706   2.277
24083SOL     OW84307   8.555   5.813   2.051
24083SOL    HW184308   8.634   5.752   2.057
24083SOL    HW284309   8.525   5.837   2.143
24084SOL     OW84310   7.776   6.065   3.037
24084SOL    HW184311   7.752   5.971   3.064
24084SOL    HW284312   7.693   6.121   3.037
24085SOL     OW84313   8.781   6.319   3.116
24085SOL    HW184314   8.797   6.416   3.098
24085SOL    HW284315   8.865   6.277   3.151
24086SOL     OW84316   7.791   5.773   2.243
24086SOL    HW184317   7.752   5.798   2.331
24086SOL    HW284318   7.727   5.797   2.170
24087SOL     OW84319   8.919   7.281   3.164
24087SOL    HW184320   8.840   7.293   3.105
24087SOL    HW284321   9.002   7.276   3.109
24088SOL     OW84322   9.137   6.108   3.001
24088SOL    HW184323   9.230   6.146   3.007
24088SOL    HW284324   9.084   6.137   3.081
24089SOL     OW84325   9.163   7.267   3.015
24089SOL    HW184326   9.200   7.294   3.104
24089SOL    HW284327   9.237   7.256   2.950
24090SOL     OW84328   8.404   6.080   2.453
24090SOL    HW184329   8.457   6.142   2.511
24090SOL    HW284330   8.308   6.108   2.452
24091SOL     OW84331   8.636   6.513   2.007
24091SOL    HW184332   8.653   6.479   2.100
24091SOL    HW284333   8.600   6.438   1.951
24092SOL     OW84334   8.482   5.841   3.614
24092SOL    HW184335   8.528   5.852   3.702
24092SOL    HW284336   8.393   5.799   3.627
24093SOL     OW84337   9.119   6.224   2.226
24093SOL    HW184338   9.075   6.135   2.222
24093SOL    HW284339   9.175   6.231   2.309
24094SOL     OW84340   8.352   7.273   1.995
24094SOL    HW184341   8.402   7.208   1.938
24094SOL    HW284342   8.372   7.255   2.092
24095SOL     OW84343   8.081   5.602   3.584
24095SOL    HW184344   8.039   5.522   3.628
24095SOL    HW284345   8.154   5.637   3.642
24096SOL     OW84346   9.068   6.206   2.756
24096SOL    HW184347   9.025   6.296   2.765
24096SOL    HW284348   9.085   6.168   2.847
24097SOL     OW84349   8.483   6.843   3.581
24097SOL    HW184350   8.520   6.751   3.578
24097SOL    HW284351   8.436   6.863   3.495
24098SOL     OW84352   8.156   6.643   3.565
24098SOL    HW184353   8.099   6.725   3.568
24098SOL    HW284354   8.148   6.593   3.651
24099SOL     OW84355   8.805   5.509   2.710
24099SOL    HW184356   8.754   5.595   2.710
24099SOL    HW284357   8.892   5.522   2.662
24100SOL     OW84358   9.111   5.753   3.634
24100SOL    HW184359   9.077   5.799   3.716
24100SOL    HW284360   9.109   5.654   3.647
24101SOL     OW84361   7.443   6.227   2.485
24101SOL    HW184362   7.455   6.163   2.561
24101SOL    HW284363   7.416   6.316   2.521
24102SOL     OW84364   7.711   5.802   3.121
24102SOL    HW184365   7.655   5.729   3.083
24102SOL    HW284366   7.788   5.762   3.171
24103SOL     OW84367   8.431   6.383   2.772
24103SOL    HW184368   8.348   6.380   2.716
24103SOL    HW284369   8.496   6.316   2.739
24104SOL     OW84370   7.582   6.970   2.237
24104SOL    HW184371   7.620   6.886   2.275
24104SOL    HW284372   7.615   6.981   2.143
24105SOL     OW84373   8.856   6.870   3.088
24105SOL    HW184374   8.816   6.905   3.003
24105SOL    HW284375   8.789   6.880   3.162
24106SOL     OW84376   7.633   7.143   2.439
24106SOL    HW184377   7.546   7.175   2.474
24106SOL    HW284378   7.617   7.081   2.361
24107SOL     OW84379   9.125   6.910   3.129
24107SOL    HW184380   9.151   6.945   3.219
24107SOL    HW284381   9.026   6.897   3.125
24108SOL     OW84382   7.868   6.485   1.908
24108SOL    HW184383   7.846   6.536   1.825
24108SOL    HW284384   7.849   6.541   1.988
24109SOL     OW84385   8.338   6.670   3.143
24109SOL    HW184386   8.382   6.585   3.113
24109SOL    HW284387   8.275   6.702   3.072
24110SOL     OW84388   7.478   6.308   2.068
24110SOL    HW184389   7.541   6.231   2.054
24110SOL    HW284390   7.403   6.279   2.127
24111SOL     OW84391   8.967   6.453   2.264
24111SOL    HW184392   9.018   6.368   2.251
24111SOL    HW284393   8.995   6.520   2.196
24112SOL     OW84394   8.332   7.405   2.820
24112SOL    HW184395   8.351   7.307   2.808
24112SOL    HW284396   8.240   7.417   2.857
24113SOL     OW84397   8.144   6.453   1.909
24113SOL    HW184398   8.178   6.367   1.946
24113SOL    HW284399   8.045   6.450   1.904
24114SOL     OW84400   8.768   5.952   2.272
24114SOL    HW184401   8.721   6.020   2.216
24114SOL    HW284402   8.867   5.967   2.267
24115SOL     OW84403   7.638   6.173   3.368
24115SOL    HW184404   7.602   6.091   3.324
24115SOL    HW284405   7.611   6.174   3.465
24116SOL     OW84406   7.528   5.929   3.281
24116SOL    HW184407   7.598   5.886   3.223
24116SOL    HW284408   7.437   5.898   3.253
24117SOL     OW84409   8.391   6.418   3.041
24117SOL    HW184410   8.410   6.410   2.944
24117SOL    HW284411   8.313   6.361   3.065
24118SOL     OW84412   9.045   5.962   2.297
24118SOL    HW184413   9.138   5.928   2.286
24118SOL    HW284414   9.026   5.978   2.394
24119SOL     OW84415   8.322   7.126   2.802
24119SOL    HW184416   8.376   7.076   2.734
24119SOL    HW284417   8.227   7.127   2.773
24120SOL     OW84418   8.259   5.955   2.100
24120SOL    HW184419   8.173   5.949   2.151
24120SOL    HW284420   8.335   5.927   2.160
24121SOL     OW84421   8.347   6.836   2.042
24121SOL    HW184422   8.392   6.814   2.128
24121SOL    HW284423   8.412   6.829   1.967
24122SOL     OW84424   9.153   7.145   2.515
24122SOL    HW184425   9.114   7.229   2.552
24122SOL    HW284426   9.146   7.145   2.416
24123SOL     OW84427   8.565   6.429   2.473
24123SOL    HW184428   8.606   6.454   2.561
24123SOL    HW284429   8.476   6.474   2.463
24124SOL     OW84430   8.207   7.161   3.525
24124SOL    HW184431   8.171   7.103   3.453
24124SOL    HW284432   8.200   7.114   3.613
24125SOL     OW84433   8.712   6.503   2.696
24125SOL    HW184434   8.791   6.477   2.751
24125SOL    HW284435   8.654   6.565   2.749
24126SOL     OW84436   7.705   6.625   2.748
24126SOL    HW184437   7.613   6.663   2.740
24126SOL    HW284438   7.723   6.601   2.843
24127SOL     OW84439   8.316   6.540   2.412
24127SOL    HW184440   8.276   6.472   2.350
24127SOL    HW284441   8.249   6.566   2.481
24128SOL     OW84442   8.652   6.904   3.274
24128SOL    HW184443   8.695   6.988   3.307
24128SOL    HW284444   8.553   6.908   3.289
24129SOL     OW84445   9.052   7.321   2.040
24129SOL    HW184446   9.136   7.376   2.044
24129SOL    HW284447   9.044   7.279   1.949
24130SOL     OW84448   8.197   6.278   3.202
24130SOL    HW184449   8.189   6.366   3.248
24130SOL    HW284450   8.250   6.215   3.260
24131SOL     OW84451   8.185   6.355   2.248
24131SOL    HW184452   8.090   6.381   2.234
24131SOL    HW284453   8.222   6.317   2.164
24132SOL     OW84454   7.743   6.070   2.759
24132SOL    HW184455   7.814   6.105   2.697
24132SOL    HW284456   7.780   6.066   2.852
24133SOL     OW84457   7.700   7.253   2.078
24133SOL    HW184458   7.778   7.311   2.054
24133SOL    HW284459   7.691   7.249   2.177
24134SOL     OW84460   8.700   7.299   2.998
24134SOL    HW184461   8.731   7.317   2.904
24134SOL    HW284462   8.629   7.229   2.996
24135SOL     OW84463   7.441   6.719   2.789
24135SOL    HW184464   7.354   6.721   2.740
24135SOL    HW284465   7.434   6.656   2.867
24136SOL     OW84466   8.170   5.672   2.264
24136SOL    HW184467   8.252   5.629   2.226
24136SOL    HW284468   8.100   5.602   2.281
24137SOL     OW84469   7.429   6.658   2.369
24137SOL    HW184470   7.518   6.698   2.392
24137SOL    HW284471   7.430   6.628   2.274
24138SOL     OW84472   8.969   5.820   3.399
24138SOL    HW184473   8.922   5.908   3.396
24138SOL    HW284474   9.017   5.811   3.487
24139SOL     OW84475   8.684   5.762   2.707
24139SOL    HW184476   8.700   5.839   2.645
24139SOL    HW284477   8.712   5.788   2.799
24140SOL     OW84478   8.773   5.623   2.039
24140SOL    HW184479   8.782   5.526   2.017
24140SOL    HW284480   8.759   5.634   2.137
24141SOL     OW84481   8.980   5.542   3.409
24141SOL    HW184482   8.981   5.503   3.317
24141SOL    HW284483   8.968   5.641   3.403
24142SOL     OW84484   8.686   6.131   2.945
24142SOL    HW184485   8.670   6.172   2.855
24142SOL    HW284486   8.720   6.202   3.007
24143SOL     OW84487   8.999   5.585   2.293
24143SOL    HW184488   9.019   5.548   2.202
24143SOL    HW284489   8.904   5.618   2.296
24144SOL     OW84490   7.995   6.881   3.531
24144SOL    HW184491   8.038   6.921   3.450
24144SOL    HW284492   8.029   6.926   3.613
24145SOL     OW84493   7.832   6.647   3.506
24145SOL    HW184494   7.868   6.610   3.420
24145SOL    HW284495   7.875   6.735   3.525
24146SOL     OW84496   7.521   6.909   2.979
24146SOL    HW184497   7.498   6.854   2.898
24146SOL    HW284498   7.436   6.939   3.024
24147SOL     OW84499   8.561   6.146   2.692
24147SOL    HW184500   8.624   6.091   2.637
24147SOL    HW284501   8.499   6.085   2.741
24148SOL     OW84502   9.131   6.154   3.566
24148SOL    HW184503   9.124   6.229   3.500
24148SOL    HW284504   9.227   6.128   3.578
24149SOL     OW84505   8.775   5.874   2.948
24149SOL    HW184506   8.748   5.970   2.944
24149SOL    HW284507   8.763   5.840   3.042
24150SOL     OW84508   8.907   6.015   3.650
24150SOL    HW184509   8.986   6.067   3.616
24150SOL    HW284510   8.934   5.963   3.731
24151SOL     OW84511   8.700   6.399   2.244
24151SOL    HW184512   8.649   6.409   2.329
24151SOL    HW284513   8.796   6.421   2.260
24152SOL     OW84514   8.931   6.523   2.526
24152SOL    HW184515   8.932   6.505   2.428
24152SOL    HW284516   8.838   6.512   2.561
24153SOL     OW84517   9.132   6.360   3.384
24153SOL    HW184518   9.066   6.435   3.382
24153SOL    HW284519   9.225   6.398   3.384
24154SOL     OW84520   8.981   5.814   2.014
24154SOL    HW184521   9.008   5.844   2.105
24154SOL    HW284522   8.911   5.743   2.020
24155SOL     OW84523   8.111   7.009   3.305
24155SOL    HW184524   8.090   7.098   3.264
24155SOL    HW284525   8.079   6.936   3.245
24156SOL     OW84526   7.502   5.872   3.548
24156SOL    HW184527   7.513   5.890   3.451
24156SOL    HW284528   7.414   5.827   3.565
24157SOL     OW84529   8.787   7.124   3.353
24157SOL    HW184530   8.724   7.187   3.400
24157SOL    HW284531   8.839   7.175   3.284
24158SOL     OW84532   7.681   6.111   2.092
24158SOL    HW184533   7.745   6.142   2.021
24158SOL    HW284534   7.702   6.157   2.178
24159SOL     OW84535   9.156   5.766   3.199
24159SOL    HW184536   9.086   5.794   3.265
24159SOL    HW284537   9.124   5.786   3.107
24160SOL     OW84538   7.919   7.369   2.490
24160SOL    HW184539   7.848   7.299   2.497
24160SOL    HW284540   8.006   7.326   2.465
24161SOL     OW84541   7.744   6.839   3.116
24161SOL    HW184542   7.741   6.878   3.209
24161SOL    HW284543   7.668   6.874   3.063
24162SOL     OW84544   8.592   7.081   3.676
24162SOL    HW184545   8.563   6.992   3.642
24162SOL    HW284546   8.600   7.146   3.600
24163SOL     OW84547   8.126   6.811   2.337
24163SOL    HW184548   8.143   6.749   2.261
24163SOL    HW284549   8.131   6.760   2.423
24164SOL     OW84550   7.713   6.389   2.592
24164SOL    HW184551   7.732   6.476   2.637
24164SOL    HW284552   7.795   6.331   2.598
24165SOL     OW84553   7.611   5.841   2.050
24165SOL    HW184554   7.660   5.810   1.968
24165SOL    HW284555   7.621   5.940   2.059
24166SOL     OW84556   7.476   6.089   2.731
24166SOL    HW184557   7.457   6.180   2.770
24166SOL    HW284558   7.573   6.069   2.739
24167SOL     OW84559   7.871   6.668   2.129
24167SOL    HW184560   7.970   6.672   2.123
24167SOL    HW284561   7.831   6.752   2.092
24168SOL     OW84562   8.526   6.269   1.900
24168SOL    HW184563   8.475   6.328   1.837
24168SOL    HW284564   8.579   6.203   1.848
24169SOL     OW84565   8.275   6.227   2.019
24169SOL    HW184566   8.368   6.243   1.988
24169SOL    HW284567   8.261   6.130   2.038
24170SOL     OW84568   8.739   5.684   2.299
24170SOL    HW184569   8.667   5.662   2.365
24170SOL    HW284570   8.748   5.784   2.292
24171SOL     OW84571   8.803   6.037   3.338
24171SOL    HW184572   8.744   6.068   3.413
24171SOL    HW284573   8.754   5.972   3.281
24172SOL     OW84574   7.400   5.662   2.113
24172SOL    HW184575   7.446   5.575   2.131
24172SOL    HW284576   7.468   5.731   2.088
24173SOL     OW84577   7.700   6.581   3.026
24173SOL    HW184578   7.705   6.516   3.102
24173SOL    HW284579   7.722   6.672   3.059
24174SOL     OW84580   9.063   6.603   2.059
24174SOL    HW184581   9.162   6.618   2.068
24174SOL    HW284582   9.040   6.592   1.962
24175SOL     OW84583   8.004   6.230   3.009
24175SOL    HW184584   8.057   6.245   3.092
24175SOL    HW284585   7.924   6.174   3.030
24176SOL     OW84586   8.202   6.519   3.329
24176SOL    HW184587   8.259   6.577   3.271
24176SOL    HW284588   8.195   6.560   3.420
24177SOL     OW84589   8.556   6.577   3.537
24177SOL    HW184590   8.474   6.521   3.553
24177SOL    HW284591   8.637   6.525   3.561
24178SOL     OW84592   8.535   5.663   2.485
24178SOL    HW184593   8.576   5.695   2.570
24178SOL    HW284594   8.474   5.586   2.504
24179SOL     OW84595   8.604   7.277   3.482
24179SOL    HW184596   8.518   7.296   3.436
24179SOL    HW284597   8.644   7.362   3.516
24180SOL     OW84598   8.356   6.768   2.732
24180SOL    HW184599   8.392   6.849   2.685
24180SOL    HW284600   8.431   6.718   2.774
24181SOL     OW84601   8.064   6.484   2.805
24181SOL    HW184602   8.111   6.423   2.741
24181SOL    HW284603   8.017   6.429   2.874
24182SOL     OW84604   7.424   6.552   3.004
24182SOL    HW184605   7.523   6.553   3.018
24182SOL    HW284606   7.396   6.462   2.968
24183SOL     OW84607   7.756   5.493   2.244
24183SOL    HW184608   7.777   5.591   2.242
24183SOL    HW284609   7.657   5.480   2.233
24184SOL     OW84610   8.084   6.196   3.524
24184SOL    HW184611   8.022   6.230   3.454
24184SOL    HW284612   8.174   6.179   3.484
24185SOL     OW84613   7.464   6.589   2.108
24185SOL    HW184614   7.485   6.495   2.081
24185SOL    HW284615   7.509   6.652   2.046
24186SOL     OW84616   9.143   5.785   2.695
24186SOL    HW184617   9.113   5.798   2.789
24186SOL    HW284618   9.242   5.773   2.693
24187SOL     OW84619   8.166   6.715   2.928
24187SOL    HW184620   8.125   6.631   2.892
24187SOL    HW284621   8.232   6.750   2.862
24188SOL     OW84622   8.656   6.156   2.129
24188SOL    HW184623   8.672   6.240   2.180
24188SOL    HW284624   8.603   6.176   2.047
24189SOL     OW84625   8.949   6.991   3.530
24189SOL    HW184626   8.908   6.909   3.571
24189SOL    HW284627   8.884   7.032   3.466
24190SOL     OW84628   7.624   6.409   3.234
24190SOL    HW184629   7.627   6.321   3.281
24190SOL    HW284630   7.601   6.481   3.300
24191SOL     OW84631   8.185   7.000   1.889
24191SOL    HW184632   8.134   7.067   1.944
24191SOL    HW284633   8.248   6.949   1.947
24192SOL     OW84634   8.065   7.346   2.899
24192SOL    HW184635   8.058   7.271   2.833
24192SOL    HW284636   8.056   7.309   2.992
24193SOL     OW84637   8.133   6.670   2.596
24193SOL    HW184638   8.214   6.714   2.635
24193SOL    HW284639   8.097   6.603   2.661
24194SOL     OW84640   8.314   7.024   2.381
24194SOL    HW184641   8.381   7.045   2.309
24194SOL    HW284642   8.263   6.941   2.355
24195SOL     OW84643   7.502   6.366   2.774
24195SOL    HW184644   7.586   6.363   2.719
24195SOL    HW284645   7.430   6.412   2.723
24196SOL     OW84646   7.421   6.473   3.645
24196SOL    HW184647   7.327   6.507   3.649
24196SOL    HW284648   7.441   6.419   3.727
24197SOL     OW84649   8.362   7.324   3.359
24197SOL    HW184650   8.316   7.261   3.421
24197SOL    HW284651   8.302   7.401   3.339
24198SOL     OW84652   8.589   6.685   2.868
24198SOL    HW184653   8.622   6.779   2.872
24198SOL    HW284654   8.616   6.637   2.951
24199SOL     OW84655   7.923   5.944   3.679
24199SOL    HW184656   7.986   5.929   3.603
24199SOL    HW284657   7.920   6.042   3.700
24200SOL     OW84658   7.922   6.414   2.228
24200SOL    HW184659   7.897   6.506   2.198
24200SOL    HW284660   7.840   6.367   2.262
24201SOL     OW84661   8.949   6.474   2.845
24201SOL    HW184662   8.992   6.553   2.802
24201SOL    HW284663   8.914   6.501   2.935
24202SOL     OW84664   8.746   5.788   3.208
24202SOL    HW184665   8.816   5.771   3.278
24202SOL    HW284666   8.703   5.702   3.182
24203SOL     OW84667   8.680   5.635   3.620
24203SOL    HW184668   8.723   5.645   3.710
24203SOL    HW284669   8.616   5.710   3.606
24204SOL     OW84670   9.186   6.983   3.391
24204SOL    HW184671   9.232   7.069   3.414
24204SOL    HW284672   9.099   6.978   3.442
24205SOL     OW84673   8.435   6.018   2.932
24205SOL    HW184674   8.521   6.065   2.954
24205SOL    HW284675   8.439   5.924   2.967
24206SOL     OW84676   7.863   7.045   2.543
24206SOL    HW184677   7.860   6.946   2.558
24206SOL    HW284678   7.772   7.078   2.517
24207SOL     OW84679   8.495   7.114   3.011
24207SOL    HW184680   8.448   7.103   3.099
24207SOL    HW284681   8.427   7.120   2.938
24208SOL     OW84682   7.518   6.848   3.503
24208SOL    HW184683   7.514   6.754   3.468
24208SOL    HW284684   7.444   6.902   3.463
24209SOL     OW84685   8.445   6.752   2.281
24209SOL    HW184686   8.539   6.767   2.311
24209SOL    HW284687   8.406   6.674   2.329
24210SOL     OW84688   9.012   6.000   2.573
24210SOL    HW184689   9.031   6.081   2.629
24210SOL    HW284690   9.059   5.921   2.612
24211SOL     OW84691   8.141   6.668   2.094
24211SOL    HW184692   8.213   6.733   2.073
24211SOL    HW284693   8.155   6.584   2.042
24212SOL     OW84694   8.244   5.707   1.956
24212SOL    HW184695   8.296   5.642   2.012
24212SOL    HW284696   8.249   5.798   1.999
24213SOL     OW84697   7.891   6.178   2.548
24213SOL    HW184698   7.828   6.157   2.474
24213SOL    HW284699   7.985   6.167   2.516
24214SOL     OW84700   7.942   6.568   3.269
24214SOL    HW184701   8.034   6.535   3.292
24214SOL    HW284702   7.948   6.652   3.216
24215SOL     OW84703   9.141   6.639   3.182
24215SOL    HW184704   9.143   6.737   3.160
24215SOL    HW284705   9.196   6.589   3.116
24216SOL     OW84706   7.580   6.770   1.942
24216SOL    HW184707   7.547   6.784   1.849
24216SOL    HW284708   7.658   6.830   1.960
24217SOL     OW84709   8.021   7.153   2.039
24217SOL    HW184710   7.981   7.244   2.026
24217SOL    HW284711   8.000   7.121   2.132
24218SOL     OW84712   8.712   6.644   3.320
24218SOL    HW184713   8.651   6.608   3.390
24218SOL    HW284714   8.692   6.741   3.304
24219SOL     OW84715   8.033   7.264   3.199
24219SOL    HW184716   8.075   7.346   3.239
24219SOL    HW284717   7.934   7.268   3.209
24220SOL     OW84718   7.547   6.132   3.628
24220SOL    HW184719   7.533   6.035   3.612
24220SOL    HW284720   7.599   6.146   3.712
24221SOL     OW84721   9.037   7.050   2.899
24221SOL    HW184722   9.067   7.142   2.925
24221SOL    HW284723   9.064   6.985   2.971
24222SOL     OW84724   7.352   6.473   2.564
24222SOL    HW184725   7.389   6.540   2.500
24222SOL    HW284726   7.252   6.479   2.564
24223SOL     OW84727   7.897   6.287   3.349
24223SOL    HW184728   7.808   6.243   3.351
24223SOL    HW284729   7.889   6.377   3.307
24224SOL     OW84730   9.031   6.706   2.704
24224SOL    HW184731   9.006   6.802   2.690
24224SOL    HW284732   8.993   6.650   2.630
24225SOL     OW84733   8.214   6.160   2.845
24225SOL    HW184734   8.287   6.107   2.888
24225SOL    HW284735   8.140   6.174   2.911
24226SOL     OW84736   8.015   6.814   3.137
24226SOL    HW184737   7.919   6.831   3.114
24226SOL    HW284738   8.065   6.785   3.055
24227SOL     OW84739   7.562   6.244   3.019
24227SOL    HW184740   7.583   6.311   3.091
24227SOL    HW284741   7.553   6.292   2.932
24228SOL     OW84742   7.748   6.934   3.375
24228SOL    HW184743   7.826   6.934   3.438
24228SOL    HW284744   7.665   6.912   3.425
24229SOL     OW84745   9.033   7.238   3.629
24229SOL    HW184746   9.004   7.144   3.614
24229SOL    HW284747   9.001   7.296   3.554
24230SOL     OW84748   8.713   6.789   2.325
24230SOL    HW184749   8.804   6.798   2.364
24230SOL    HW284750   8.720   6.772   2.227
24231SOL     OW84751   8.046   5.914   2.272
24231SOL    HW184752   7.952   5.886   2.250
24231SOL    HW284753   8.102   5.832   2.285
24232SOL     OW84754   9.031   5.561   2.567
24232SOL    HW184755   9.020   5.577   2.469
24232SOL    HW284756   9.075   5.641   2.609
24233SOL     OW84757   8.530   6.284   3.240
24233SOL    HW184758   8.628   6.285   3.220
24233SOL    HW284759   8.481   6.338   3.171
24234SOL     OW84760   8.195   6.317   2.633
24234SOL    HW184761   8.202   6.251   2.708
24234SOL    HW284762   8.174   6.268   2.548
24235SOL     OW84763   8.676   6.945   2.889
24235SOL    HW184764   8.611   7.001   2.941
24235SOL    HW284765   8.696   6.990   2.802
24236SOL     OW84766   8.737   5.981   2.549
24236SOL    HW184767   8.720   5.976   2.451
24236SOL    HW284768   8.835   5.994   2.566
24237SOL     OW84769   8.474   6.993   4.455
24237SOL    HW184770   8.569   7.026   4.456
24237SOL    HW284771   8.437   7.002   4.363
24238SOL     OW84772   8.974   6.819   4.244
24238SOL    HW184773   8.985   6.884   4.319
24238SOL    HW284774   9.062   6.778   4.223
24239SOL     OW84775   9.013   6.199   5.065
24239SOL    HW184776   8.950   6.145   5.120
24239SOL    HW284777   9.070   6.256   5.125
24240SOL     OW84778   7.699   5.795   3.713
24240SOL    HW184779   7.626   5.822   3.649
24240SOL    HW284780   7.782   5.846   3.691
24241SOL     OW84781   8.733   7.092   4.499
24241SOL    HW184782   8.744   7.189   4.522
24241SOL    HW284783   8.821   7.053   4.474
24242SOL     OW84784   8.563   5.627   5.020
24242SOL    HW184785   8.496   5.569   5.066
24242SOL    HW284786   8.619   5.572   4.957
24243SOL     OW84787   8.352   6.426   5.444
24243SOL    HW184788   8.321   6.426   5.349
24243SOL    HW284789   8.274   6.438   5.505
24244SOL     OW84790   7.968   7.012   4.159
24244SOL    HW184791   7.931   7.037   4.249
24244SOL    HW284792   8.035   6.939   4.170
24245SOL     OW84793   7.938   5.713   3.858
24245SOL    HW184794   7.976   5.793   3.812
24245SOL    HW284795   7.840   5.706   3.838
24246SOL     OW84796   8.971   6.587   5.236
24246SOL    HW184797   8.875   6.606   5.214
24246SOL    HW284798   9.030   6.621   5.163
24247SOL     OW84799   8.803   6.597   4.917
24247SOL    HW184800   8.760   6.597   5.007
24247SOL    HW284801   8.849   6.684   4.901
24248SOL     OW84802   8.371   6.902   5.156
24248SOL    HW184803   8.287   6.956   5.149
24248SOL    HW284804   8.362   6.818   5.103
24249SOL     OW84805   7.880   6.768   4.414
24249SOL    HW184806   7.829   6.711   4.478
24249SOL    HW284807   7.977   6.742   4.416
24250SOL     OW84808   8.098   6.162   4.270
24250SOL    HW184809   8.127   6.237   4.210
24250SOL    HW284810   8.077   6.081   4.215
24251SOL     OW84811   8.667   6.082   5.438
24251SOL    HW184812   8.757   6.052   5.468
24251SOL    HW284813   8.605   6.003   5.434
24252SOL     OW84814   7.837   6.929   3.834
24252SOL    HW184815   7.930   6.958   3.812
24252SOL    HW284816   7.787   7.005   3.876
24253SOL     OW84817   7.953   5.846   4.716
24253SOL    HW184818   8.009   5.928   4.704
24253SOL    HW284819   8.002   5.766   4.681
24254SOL     OW84820   7.714   6.297   4.181
24254SOL    HW184821   7.754   6.325   4.268
24254SOL    HW284822   7.617   6.277   4.195
24255SOL     OW84823   8.194   7.224   4.299
24255SOL    HW184824   8.253   7.150   4.267
24255SOL    HW284825   8.181   7.291   4.226
24256SOL     OW84826   9.158   7.158   4.084
24256SOL    HW184827   9.247   7.116   4.065
24256SOL    HW284828   9.130   7.215   4.006
24257SOL     OW84829   9.048   5.878   4.804
24257SOL    HW184830   9.089   5.968   4.814
24257SOL    HW284831   8.948   5.886   4.808
24258SOL     OW84832   8.455   5.923   4.049
24258SOL    HW184833   8.505   6.009   4.056
24258SOL    HW284834   8.464   5.872   4.135
24259SOL     OW84835   7.559   6.557   5.282
24259SOL    HW184836   7.651   6.588   5.307
24259SOL    HW284837   7.513   6.520   5.363
24260SOL     OW84838   7.897   6.228   3.722
24260SOL    HW184839   7.873   6.325   3.728
24260SOL    HW284840   7.970   6.216   3.654
24261SOL     OW84841   8.071   7.162   4.531
24261SOL    HW184842   8.123   7.193   4.451
24261SOL    HW284843   7.988   7.115   4.500
24262SOL     OW84844   8.358   6.146   5.267
24262SOL    HW184845   8.400   6.071   5.318
24262SOL    HW284846   8.429   6.203   5.226
24263SOL     OW84847   8.995   6.983   4.475
24263SOL    HW184848   9.002   7.001   4.573
24263SOL    HW284849   9.053   7.047   4.425
24264SOL     OW84850   7.713   6.769   4.195
24264SOL    HW184851   7.775   6.769   4.274
24264SOL    HW284852   7.764   6.742   4.113
24265SOL     OW84853   8.616   5.852   3.841
24265SOL    HW184854   8.686   5.786   3.867
24265SOL    HW284855   8.558   5.872   3.920
24266SOL     OW84856   7.752   6.074   4.941
24266SOL    HW184857   7.750   5.975   4.931
24266SOL    HW284858   7.667   6.113   4.906
24267SOL     OW84859   8.781   6.324   4.985
24267SOL    HW184860   8.795   6.418   4.955
24267SOL    HW284861   8.869   6.283   5.010
24268SOL     OW84862   7.779   5.845   4.158
24268SOL    HW184863   7.733   5.872   4.242
24268SOL    HW284864   7.724   5.874   4.079
24269SOL     OW84865   8.909   7.279   5.013
24269SOL    HW184866   8.830   7.292   4.954
24269SOL    HW284867   8.992   7.271   4.958
24270SOL     OW84868   9.150   6.130   4.841
24270SOL    HW184869   9.239   6.176   4.841
24270SOL    HW284870   9.100   6.155   4.923
24271SOL     OW84871   9.148   7.266   4.858
24271SOL    HW184872   9.186   7.298   4.945
24271SOL    HW284873   9.221   7.255   4.791
24272SOL     OW84874   8.315   6.008   4.363
24272SOL    HW184875   8.385   6.050   4.421
24272SOL    HW284876   8.250   6.078   4.332
24273SOL     OW84877   8.640   6.517   3.846
24273SOL    HW184878   8.659   6.472   3.934
24273SOL    HW284879   8.593   6.453   3.786
24274SOL     OW84880   8.460   5.891   5.429
24274SOL    HW184881   8.492   5.870   5.521
24274SOL    HW284882   8.370   5.850   5.414
24275SOL     OW84883   9.147   6.228   4.074
24275SOL    HW184884   9.098   6.141   4.084
24275SOL    HW284885   9.212   6.238   4.149
24276SOL     OW84886   8.373   7.173   3.818
24276SOL    HW184887   8.444   7.143   3.754
24276SOL    HW284888   8.383   7.124   3.904
24277SOL     OW84889   8.187   5.605   5.411
24277SOL    HW184890   8.206   5.508   5.395
24277SOL    HW284891   8.186   5.623   5.510
24278SOL     OW84892   9.075   6.220   4.593
24278SOL    HW184893   9.028   6.307   4.602
24278SOL    HW284894   9.095   6.184   4.684
24279SOL     OW84895   8.486   6.874   5.430
24279SOL    HW184896   8.526   6.783   5.425
24279SOL    HW284897   8.434   6.892   5.346
24280SOL     OW84898   8.124   6.683   5.414
24280SOL    HW184899   8.070   6.767   5.422
24280SOL    HW284900   8.126   6.636   5.503
24281SOL     OW84901   8.788   5.514   4.586
24281SOL    HW184902   8.744   5.603   4.591
24281SOL    HW284903   8.875   5.522   4.537
24282SOL     OW84904   9.124   5.749   5.480
24282SOL    HW184905   9.095   5.794   5.565
24282SOL    HW284906   9.110   5.651   5.488
24283SOL     OW84907   7.455   6.253   4.266
24283SOL    HW184908   7.462   6.183   4.337
24283SOL    HW284909   7.436   6.341   4.309
24284SOL     OW84910   7.762   5.756   4.526
24284SOL    HW184911   7.819   5.798   4.597
24284SOL    HW284912   7.809   5.677   4.488
24285SOL     OW84913   7.765   5.798   4.917
24285SOL    HW184914   7.750   5.700   4.929
24285SOL    HW284915   7.832   5.812   4.844
24286SOL     OW84916   8.510   6.330   4.661
24286SOL    HW184917   8.571   6.396   4.618
24286SOL    HW284918   8.495   6.253   4.598
24287SOL     OW84919   7.590   7.016   4.163
24287SOL    HW184920   7.625   6.923   4.179
24287SOL    HW284921   7.636   7.056   4.084
24288SOL     OW84922   8.848   6.876   4.933
24288SOL    HW184923   8.810   6.913   4.848
24288SOL    HW284924   8.782   6.885   5.007
24289SOL     OW84925   7.624   7.200   4.367
24289SOL    HW184926   7.570   7.280   4.343
24289SOL    HW284927   7.609   7.128   4.299
24290SOL     OW84928   9.114   6.925   4.976
24290SOL    HW184929   9.136   6.960   5.067
24290SOL    HW284930   9.015   6.911   4.970
24291SOL     OW84931   7.866   6.503   3.739
24291SOL    HW184932   7.846   6.549   3.652
24291SOL    HW284933   7.835   6.560   3.814
24292SOL     OW84934   8.335   6.673   4.999
24292SOL    HW184935   8.383   6.590   4.970
24292SOL    HW284936   8.276   6.705   4.924
24293SOL     OW84937   7.459   6.345   3.887
24293SOL    HW184938   7.540   6.287   3.896
24293SOL    HW284939   7.384   6.306   3.942
24294SOL     OW84940   8.980   6.447   4.098
24294SOL    HW184941   9.039   6.366   4.089
24294SOL    HW284942   9.005   6.514   4.028
24295SOL     OW84943   8.274   7.383   4.687
24295SOL    HW184944   8.312   7.293   4.665
24295SOL    HW284945   8.195   7.373   4.747
24296SOL     OW84946   8.138   6.450   3.774
24296SOL    HW184947   8.166   6.360   3.806
24296SOL    HW284948   8.038   6.454   3.767
24297SOL     OW84949   8.763   5.957   4.136
24297SOL    HW184950   8.716   6.027   4.082
24297SOL    HW284951   8.862   5.973   4.131
24298SOL     OW84952   7.699   6.206   5.180
24298SOL    HW184953   7.716   6.137   5.110
24298SOL    HW284954   7.658   6.163   5.260
24299SOL     OW84955   7.574   5.839   5.122
24299SOL    HW184956   7.645   5.825   5.053
24299SOL    HW284957   7.484   5.820   5.082
24300SOL     OW84958   8.405   6.419   4.907
24300SOL    HW184959   8.435   6.392   4.816
24300SOL    HW284960   8.326   6.365   4.934
24301SOL     OW84961   9.042   5.977   4.147
24301SOL    HW184962   9.133   5.938   4.134
24301SOL    HW284963   9.025   5.991   4.245
24302SOL     OW84964   8.320   7.115   4.642
24302SOL    HW184965   8.377   7.072   4.572
24302SOL    HW284966   8.226   7.118   4.610
24303SOL     OW84967   8.210   5.928   3.933
24303SOL    HW184968   8.142   5.921   4.007
24303SOL    HW284969   8.302   5.925   3.973
24304SOL     OW84970   8.342   6.839   3.836
24304SOL    HW184971   8.396   6.815   3.916
24304SOL    HW284972   8.399   6.836   3.755
24305SOL     OW84973   9.146   7.172   4.355
24305SOL    HW184974   9.105   7.258   4.387
24305SOL    HW284975   9.145   7.170   4.255
24306SOL     OW84976   8.582   6.453   4.301
24306SOL    HW184977   8.611   6.476   4.394
24306SOL    HW284978   8.490   6.488   4.285
24307SOL     OW84979   8.220   7.174   5.335
24307SOL    HW184980   8.176   7.120   5.263
24307SOL    HW284981   8.223   7.121   5.419
24308SOL     OW84982   8.695   6.503   4.549
24308SOL    HW184983   8.784   6.478   4.587
24308SOL    HW284984   8.660   6.584   4.597
24309SOL     OW84985   7.725   6.618   4.579
24309SOL    HW184986   7.635   6.661   4.574
24309SOL    HW284987   7.749   6.599   4.674
24310SOL     OW84988   8.324   6.539   4.241
24310SOL    HW184989   8.275   6.472   4.185
24310SOL    HW284990   8.264   6.572   4.314
24311SOL     OW84991   8.648   6.908   5.121
24311SOL    HW184992   8.690   6.991   5.158
24311SOL    HW284993   8.549   6.913   5.132
24312SOL     OW84994   7.446   5.844   4.143
24312SOL    HW184995   7.500   5.875   4.065
24312SOL    HW284996   7.496   5.863   4.228
24313SOL     OW84997   9.062   7.343   3.882
24313SOL    HW184998   9.149   7.392   3.883
24313SOL    HW284999   9.052   7.294   3.796
24314SOL     OW85000   8.212   6.289   5.070
24314SOL    HW185001   8.199   6.375   5.120
24314SOL    HW285002   8.260   6.223   5.128
24315SOL     OW85003   7.466   7.394   5.095
24315SOL    HW185004   7.415   7.480   5.096
24315SOL    HW285005   7.452   7.346   5.181
24316SOL     OW85006   8.174   6.356   4.095
24316SOL    HW185007   8.082   6.389   4.075
24316SOL    HW285008   8.210   6.308   4.015
24317SOL     OW85009   7.717   6.127   4.619
24317SOL    HW185010   7.775   6.094   4.544
24317SOL    HW285011   7.766   6.116   4.706
24318SOL     OW85012   7.693   7.134   3.941
24318SOL    HW185013   7.613   7.154   3.884
24318SOL    HW285014   7.724   7.217   3.987
24319SOL     OW85015   8.695   7.301   4.841
24319SOL    HW185016   8.730   7.316   4.749
24319SOL    HW285017   8.623   7.232   4.839
24320SOL     OW85018   7.469   6.733   4.632
24320SOL    HW185019   7.383   6.731   4.582
24320SOL    HW285020   7.467   6.665   4.706
24321SOL     OW85021   8.097   5.619   4.064
24321SOL    HW185022   8.036   5.651   3.992
24321SOL    HW285023   8.127   5.696   4.120
24322SOL     OW85024   7.450   6.682   4.203
24322SOL    HW185025   7.542   6.717   4.215
24322SOL    HW285026   7.436   6.657   4.107
24323SOL     OW85027   8.985   5.838   5.252
24323SOL    HW185028   8.941   5.928   5.252
24323SOL    HW285029   9.033   5.825   5.339
24324SOL     OW85030   8.681   5.767   4.612
24324SOL    HW185031   8.697   5.829   4.535
24324SOL    HW285032   8.714   5.810   4.697
24325SOL     OW85033   8.804   5.650   3.888
24325SOL    HW185034   8.873   5.579   3.879
24325SOL    HW285035   8.756   5.640   3.975
24326SOL     OW85036   8.983   5.561   5.249
24326SOL    HW185037   8.971   5.523   5.158
24326SOL    HW285038   8.976   5.661   5.245
24327SOL     OW85039   8.097   5.847   4.416
24327SOL    HW185040   8.098   5.768   4.477
24327SOL    HW285041   8.185   5.894   4.420
24328SOL     OW85042   8.630   6.153   4.835
24328SOL    HW185043   8.590   6.216   4.768
24328SOL    HW285044   8.684   6.205   4.901
24329SOL     OW85045   8.965   5.586   4.160
24329SOL    HW185046   8.983   5.538   4.075
24329SOL    HW285047   8.871   5.620   4.161
24330SOL     OW85048   7.966   6.924   5.457
24330SOL    HW185049   7.922   6.993   5.400
24330SOL    HW285050   8.052   6.959   5.493
24331SOL     OW85051   7.809   6.649   5.349
24331SOL    HW185052   7.866   6.630   5.269
24331SOL    HW285053   7.821   6.745   5.376
24332SOL     OW85054   7.515   6.939   4.810
24332SOL    HW185055   7.501   6.876   4.734
24332SOL    HW285056   7.434   6.936   4.869
24333SOL     OW85057   8.511   6.087   4.531
24333SOL    HW185058   8.595   6.046   4.496
24333SOL    HW285059   8.481   6.036   4.612
24334SOL     OW85060   9.141   6.151   5.404
24334SOL    HW185061   9.140   6.231   5.344
24334SOL    HW285062   9.235   6.120   5.417
24335SOL     OW85063   8.771   5.914   4.831
24335SOL    HW185064   8.727   6.004   4.824
24335SOL    HW285065   8.759   5.879   4.924
24336SOL     OW85066   8.923   6.015   5.502
24336SOL    HW185067   9.000   6.067   5.464
24336SOL    HW285068   8.955   5.963   5.582
24337SOL     OW85069   8.713   6.388   4.077
24337SOL    HW185070   8.663   6.414   4.160
24337SOL    HW285071   8.810   6.411   4.088
24338SOL     OW85072   8.934   6.512   4.359
24338SOL    HW185073   8.950   6.496   4.262
24338SOL    HW285074   8.837   6.502   4.379
24339SOL     OW85075   9.149   6.370   5.227
24339SOL    HW185076   9.084   6.446   5.225
24339SOL    HW285077   9.242   6.406   5.235
24340SOL     OW85078   8.990   5.858   3.865
24340SOL    HW185079   9.012   5.898   3.954
24340SOL    HW285080   8.921   5.787   3.877
24341SOL     OW85081   8.112   7.041   5.120
24341SOL    HW185082   8.053   7.119   5.098
24341SOL    HW285083   8.077   6.959   5.074
24342SOL     OW85084   7.540   5.822   5.392
24342SOL    HW185085   7.555   5.826   5.293
24342SOL    HW285086   7.446   5.796   5.411
24343SOL     OW85087   7.447   7.241   5.327
24343SOL    HW185088   7.532   7.256   5.378
24343SOL    HW285089   7.369   7.244   5.391
24344SOL     OW85090   7.588   5.885   4.367
24344SOL    HW185091   7.550   5.965   4.413
24344SOL    HW285092   7.651   5.837   4.429
24345SOL     OW85093   8.773   7.132   5.209
24345SOL    HW185094   8.708   7.195   5.249
24345SOL    HW285095   8.828   7.179   5.141
24346SOL     OW85096   7.694   6.186   3.911
24346SOL    HW185097   7.773   6.200   3.852
24346SOL    HW285098   7.715   6.221   4.003
24347SOL     OW85099   9.156   5.775   5.045
24347SOL    HW185100   9.091   5.806   5.114
24347SOL    HW285101   9.122   5.799   4.954
24348SOL     OW85102   7.855   7.377   4.389
24348SOL    HW185103   7.778   7.314   4.390
24348SOL    HW285104   7.919   7.350   4.316
24349SOL     OW85105   7.741   6.836   4.935
24349SOL    HW185106   7.737   6.863   5.031
24349SOL    HW285107   7.666   6.879   4.885
24350SOL     OW85108   8.537   7.134   5.531
24350SOL    HW185109   8.518   7.041   5.501
24350SOL    HW285110   8.555   7.192   5.451
24351SOL     OW85111   8.152   6.811   4.193
24351SOL    HW185112   8.160   6.754   4.111
24351SOL    HW285113   8.156   6.753   4.275
24352SOL     OW85114   7.798   6.384   4.432
24352SOL    HW185115   7.776   6.471   4.477
24352SOL    HW285116   7.881   6.346   4.473
24353SOL     OW85117   7.621   5.921   3.946
24353SOL    HW185118   7.646   5.871   3.863
24353SOL    HW285119   7.642   6.018   3.933
24354SOL     OW85120   7.474   6.096   4.496
24354SOL    HW185121   7.397   6.142   4.540
24354SOL    HW285122   7.557   6.112   4.550
24355SOL     OW85123   7.879   6.697   3.973
24355SOL    HW185124   7.979   6.691   3.973
24355SOL    HW285125   7.851   6.781   3.927
24356SOL     OW85126   8.512   6.226   3.749
24356SOL    HW185127   8.462   6.293   3.695
24356SOL    HW285128   8.569   6.170   3.689
24357SOL     OW85129   8.253   6.209   3.872
24357SOL    HW185130   8.346   6.212   3.837
24357SOL    HW285131   8.222   6.114   3.879
24358SOL     OW85132   8.706   5.691   4.145
24358SOL    HW185133   8.619   5.678   4.194
24358SOL    HW285134   8.729   5.789   4.143
24359SOL     OW85135   8.821   6.065   5.200
24359SOL    HW185136   8.765   6.099   5.276
24359SOL    HW285137   8.770   5.995   5.150
24360SOL     OW85138   7.452   5.566   3.895
24360SOL    HW185139   7.543   5.527   3.880
24360SOL    HW285140   7.460   5.665   3.910
24361SOL     OW85141   7.789   6.580   4.843
24361SOL    HW185142   7.771   6.516   4.919
24361SOL    HW285143   7.775   6.674   4.875
24362SOL     OW85144   9.067   6.598   3.889
24362SOL    HW185145   9.166   6.613   3.896
24362SOL    HW285146   9.042   6.582   3.793
24363SOL     OW85147   8.011   6.191   4.898
24363SOL    HW185148   8.066   6.231   4.971
24363SOL    HW285149   7.923   6.161   4.936
24364SOL     OW85150   8.220   6.534   5.208
24364SOL    HW185151   8.271   6.589   5.142
24364SOL    HW285152   8.194   6.592   5.286
24365SOL     OW85153   8.557   6.606   5.399
24365SOL    HW185154   8.478   6.547   5.416
24365SOL    HW285155   8.640   6.557   5.426
24366SOL     OW85156   8.460   5.788   4.289
24366SOL    HW185157   8.406   5.868   4.313
24366SOL    HW285158   8.456   5.721   4.363
24367SOL     OW85159   8.581   7.297   5.311
24367SOL    HW185160   8.502   7.308   5.251
24367SOL    HW285161   8.617   7.388   5.335
24368SOL     OW85162   8.077   5.637   4.592
24368SOL    HW185163   8.014   5.584   4.534
24368SOL    HW285164   8.152   5.578   4.621
24369SOL     OW85165   7.700   7.360   4.952
24369SOL    HW185166   7.672   7.308   4.872
24369SOL    HW285167   7.622   7.374   5.012
24370SOL     OW85168   8.373   6.770   4.581
24370SOL    HW185169   8.406   6.851   4.531
24370SOL    HW285170   8.449   6.728   4.630
24371SOL     OW85171   8.036   6.522   4.650
24371SOL    HW185172   8.050   6.430   4.613
24371SOL    HW285173   7.959   6.521   4.714
24372SOL     OW85174   7.477   6.537   4.822
24372SOL    HW185175   7.547   6.522   4.891
24372SOL    HW285176   7.490   6.474   4.746
24373SOL     OW85177   7.703   5.576   4.114
24373SOL    HW185178   7.754   5.659   4.140
24373SOL    HW285179   7.617   5.573   4.164
24374SOL     OW85180   8.097   6.182   5.380
24374SOL    HW185181   8.047   6.239   5.314
24374SOL    HW285182   8.190   6.168   5.347
24375SOL     OW85183   7.457   6.620   3.931
24375SOL    HW185184   7.462   6.521   3.915
24375SOL    HW285185   7.521   6.666   3.870
24376SOL     OW85186   9.128   5.788   4.552
24376SOL    HW185187   9.101   5.808   4.646
24376SOL    HW285188   9.227   5.773   4.548
24377SOL     OW85189   8.178   6.727   4.775
24377SOL    HW185190   8.129   6.650   4.735
24377SOL    HW285191   8.246   6.761   4.710
24378SOL     OW85192   8.613   6.148   4.001
24378SOL    HW185193   8.648   6.233   4.038
24378SOL    HW285194   8.578   6.163   3.909
24379SOL     OW85195   8.930   6.997   5.390
24379SOL    HW185196   8.891   6.915   5.432
24379SOL    HW285197   8.865   7.037   5.327
24380SOL     OW85198   7.629   6.432   5.044
24380SOL    HW185199   7.661   6.347   5.088
24380SOL    HW285200   7.599   6.496   5.115
24381SOL     OW85201   8.119   6.995   3.752
24381SOL    HW185202   8.102   7.069   3.819
24381SOL    HW285203   8.198   6.942   3.781
24382SOL     OW85204   8.036   7.281   4.780
24382SOL    HW185205   8.038   7.233   4.692
24382SOL    HW285206   7.958   7.248   4.833
24383SOL     OW85207   8.159   6.664   4.439
24383SOL    HW185208   8.237   6.708   4.482
24383SOL    HW285209   8.113   6.605   4.505
24384SOL     OW85210   8.350   7.011   4.212
24384SOL    HW185211   8.420   7.008   4.141
24384SOL    HW285212   8.284   6.937   4.196
24385SOL     OW85213   7.535   6.372   4.611
24385SOL    HW185214   7.619   6.331   4.575
24385SOL    HW285215   7.483   6.413   4.537
24386SOL     OW85216   7.426   6.460   5.492
24386SOL    HW185217   7.326   6.465   5.489
24386SOL    HW285218   7.454   6.409   5.574
24387SOL     OW85219   8.352   7.334   5.153
24387SOL    HW185220   8.311   7.271   5.219
24387SOL    HW285221   8.282   7.397   5.120
24388SOL     OW85222   8.606   6.696   4.720
24388SOL    HW185223   8.631   6.793   4.722
24388SOL    HW285224   8.646   6.650   4.800
24389SOL     OW85225   7.923   5.923   5.472
24389SOL    HW185226   7.992   5.903   5.403
24389SOL    HW285227   7.931   6.018   5.501
24390SOL     OW85228   7.917   6.433   4.054
24390SOL    HW185229   7.891   6.527   4.033
24390SOL    HW285230   7.841   6.387   4.099
24391SOL     OW85231   8.939   6.480   4.683
24391SOL    HW185232   8.979   6.559   4.638
24391SOL    HW285233   8.906   6.506   4.774
24392SOL     OW85234   8.731   5.828   5.090
24392SOL    HW185235   8.794   5.792   5.158
24392SOL    HW285236   8.661   5.759   5.069
24393SOL     OW85237   7.452   5.581   4.232
24393SOL    HW185238   7.368   5.532   4.207
24393SOL    HW285239   7.445   5.677   4.206
24394SOL     OW85240   8.669   5.695   5.398
24394SOL    HW185241   8.709   5.700   5.490
24394SOL    HW285242   8.598   5.765   5.390
24395SOL     OW85243   7.840   7.132   5.317
24395SOL    HW185244   7.784   7.192   5.375
24395SOL    HW285245   7.879   7.185   5.241
24396SOL     OW85246   9.161   6.995   5.239
24396SOL    HW185247   9.208   7.081   5.260
24396SOL    HW285248   9.078   6.988   5.294
24397SOL     OW85249   8.409   5.993   4.775
24397SOL    HW185250   8.479   6.051   4.816
24397SOL    HW285251   8.413   5.901   4.814
24398SOL     OW85252   7.855   7.043   4.418
24398SOL    HW185253   7.849   6.944   4.421
24398SOL    HW285254   7.763   7.082   4.410
24399SOL     OW85255   8.488   7.118   4.854
24399SOL    HW185256   8.440   7.115   4.942
24399SOL    HW285257   8.421   7.118   4.780
24400SOL     OW85258   7.677   7.299   5.477
24400SOL    HW185259   7.703   7.396   5.476
24400SOL    HW285260   7.674   7.267   5.571
24401SOL     OW85261   7.513   6.828   5.344
24401SOL    HW185262   7.505   6.733   5.313
24401SOL    HW285263   7.441   6.883   5.301
24402SOL     OW85264   7.583   7.200   4.745
24402SOL    HW185265   7.567   7.105   4.768
24402SOL    HW285266   7.597   7.209   4.646
24403SOL     OW85267   8.445   5.647   4.522
24403SOL    HW185268   8.526   5.682   4.569
24403SOL    HW285269   8.393   5.589   4.584
24404SOL     OW85270   8.450   6.740   4.078
24404SOL    HW185271   8.542   6.757   4.115
24404SOL    HW285272   8.407   6.666   4.130
24405SOL     OW85273   9.010   6.007   4.423
24405SOL    HW185274   9.034   6.089   4.475
24405SOL    HW285275   9.055   5.927   4.464
24406SOL     OW85276   8.151   6.674   3.947
24406SOL    HW185277   8.219   6.737   3.909
24406SOL    HW285278   8.159   6.585   3.901
24407SOL     OW85279   8.268   5.714   3.751
24407SOL    HW185280   8.319   5.643   3.798
24407SOL    HW285281   8.244   5.787   3.815
24408SOL     OW85282   7.885   6.034   4.425
24408SOL    HW185283   7.943   5.953   4.434
24408SOL    HW285284   7.931   6.102   4.368
24409SOL     OW85285   7.964   6.598   5.129
24409SOL    HW185286   8.056   6.569   5.156
24409SOL    HW285287   7.971   6.681   5.074
24410SOL     OW85288   9.136   6.658   5.036
24410SOL    HW185289   9.136   6.756   5.013
24410SOL    HW285290   9.188   6.608   4.968
24411SOL     OW85291   7.626   6.763   3.756
24411SOL    HW185292   7.587   6.793   3.669
24411SOL    HW285293   7.701   6.824   3.781
24412SOL     OW85294   8.059   7.167   3.955
24412SOL    HW185295   8.084   7.257   3.993
24412SOL    HW285296   8.018   7.112   4.027
24413SOL     OW85297   8.708   6.647   5.167
24413SOL    HW185298   8.650   6.613   5.241
24413SOL    HW285299   8.688   6.744   5.151
24414SOL     OW85300   7.932   7.271   5.090
24414SOL    HW185301   7.998   7.346   5.089
24414SOL    HW285302   7.848   7.299   5.044
24415SOL     OW85303   7.608   6.092   5.416
24415SOL    HW185304   7.591   5.993   5.414
24415SOL    HW285305   7.688   6.111   5.473
24416SOL     OW85306   9.029   7.048   4.733
24416SOL    HW185307   9.053   7.141   4.761
24416SOL    HW285308   9.056   6.984   4.805
24417SOL     OW85309   7.395   6.486   4.392
24417SOL    HW185310   7.426   6.560   4.332
24417SOL    HW285311   7.295   6.483   4.394
24418SOL     OW85312   7.937   6.333   5.219
24418SOL    HW185313   7.848   6.289   5.210
24418SOL    HW285314   7.932   6.426   5.181
24419SOL     OW85315   9.012   6.707   4.536
24419SOL    HW185316   8.993   6.803   4.516
24419SOL    HW285317   8.983   6.650   4.459
24420SOL     OW85318   8.135   6.064   4.698
24420SOL    HW185319   8.231   6.044   4.719
24420SOL    HW285320   8.094   6.113   4.775
24421SOL     OW85321   8.014   6.826   4.974
24421SOL    HW185322   7.920   6.840   4.945
24421SOL    HW285323   8.070   6.800   4.896
24422SOL     OW85324   7.537   6.232   4.861
24422SOL    HW185325   7.557   6.306   4.925
24422SOL    HW285326   7.541   6.267   4.767
24423SOL     OW85327   7.726   6.915   5.194
24423SOL    HW185328   7.769   6.996   5.234
24423SOL    HW285329   7.650   6.886   5.251
24424SOL     OW85330   9.022   7.245   5.479
24424SOL    HW185331   8.990   7.152   5.464
24424SOL    HW285332   8.992   7.304   5.403
24425SOL     OW85333   8.717   6.770   4.159
24425SOL    HW185334   8.806   6.783   4.202
24425SOL    HW285335   8.728   6.760   4.060
24426SOL     OW85336   8.045   5.906   4.157
24426SOL    HW185337   7.949   5.884   4.142
24426SOL    HW285338   8.071   5.878   4.250
24427SOL     OW85339   9.012   5.562   4.433
24427SOL    HW185340   8.994   5.577   4.335
24427SOL    HW285341   9.056   5.643   4.472
24428SOL     OW85342   8.533   6.303   5.127
24428SOL    HW185343   8.632   6.303   5.112
24428SOL    HW285344   8.489   6.353   5.052
24429SOL     OW85345   8.052   6.275   4.525
24429SOL    HW185346   8.075   6.202   4.589
24429SOL    HW285347   8.076   6.248   4.432
24430SOL     OW85348   8.676   6.958   4.733
24430SOL    HW185349   8.608   7.012   4.783
24430SOL    HW285350   8.699   7.004   4.647
24431SOL     OW85351   8.736   5.961   4.420
24431SOL    HW185352   8.717   5.954   4.322
24431SOL    HW285353   8.832   5.984   4.434
24432SOL     OW85354   9.009   6.825   6.072
24432SOL    HW185355   9.013   6.924   6.088
24432SOL    HW285356   9.099   6.792   6.044
24433SOL     OW85357   7.746   5.737   5.546
24433SOL    HW185358   7.665   5.754   5.490
24433SOL    HW285359   7.820   5.799   5.520
24434SOL     OW85360   8.699   7.103   6.326
24434SOL    HW185361   8.701   7.201   6.348
24434SOL    HW285362   8.791   7.066   6.331
24435SOL     OW85363   8.663   5.586   6.909
24435SOL    HW185364   8.573   5.555   6.939
24435SOL    HW285365   8.684   5.549   6.819
24436SOL     OW85366   7.927   7.028   5.935
24436SOL    HW185367   7.888   7.054   6.023
24436SOL    HW285368   8.002   6.964   5.948
24437SOL     OW85369   7.929   5.573   5.686
24437SOL    HW185370   8.022   5.609   5.681
24437SOL    HW285371   7.867   5.633   5.635
24438SOL     OW85372   8.972   6.551   6.956
24438SOL    HW185373   8.887   6.599   6.936
24438SOL    HW285374   9.048   6.616   6.952
24439SOL     OW85375   8.791   6.607   6.632
24439SOL    HW185376   8.779   6.638   6.726
24439SOL    HW285377   8.764   6.680   6.569
24440SOL     OW85378   8.386   6.962   6.904
24440SOL    HW185379   8.295   6.997   6.923
24440SOL    HW285380   8.379   6.880   6.848
24441SOL     OW85381   7.847   6.768   6.198
24441SOL    HW185382   7.819   6.731   6.286
24441SOL    HW285383   7.942   6.743   6.179
24442SOL     OW85384   8.152   6.160   6.140
24442SOL    HW185385   8.169   6.238   6.080
24442SOL    HW285386   8.156   6.075   6.086
24443SOL     OW85387   7.812   6.919   5.697
24443SOL    HW185388   7.869   6.936   5.617
24443SOL    HW285389   7.848   6.971   5.775
24444SOL     OW85390   7.919   5.810   6.564
24444SOL    HW185391   7.995   5.875   6.564
24444SOL    HW285392   7.946   5.728   6.514
24445SOL     OW85393   7.712   6.294   6.010
24445SOL    HW185394   7.751   6.306   6.101
24445SOL    HW285395   7.612   6.296   6.015
24446SOL     OW85396   8.141   7.252   6.144
24446SOL    HW185397   8.212   7.187   6.119
24446SOL    HW285398   8.139   7.327   6.078
24447SOL     OW85399   9.120   7.135   5.919
24447SOL    HW185400   9.217   7.116   5.904
24447SOL    HW285401   9.088   7.200   5.849
24448SOL     OW85402   9.063   5.868   6.657
24448SOL    HW185403   9.094   5.962   6.673
24448SOL    HW285404   8.966   5.869   6.634
24449SOL     OW85405   8.448   5.904   5.893
24449SOL    HW185406   8.509   5.982   5.909
24449SOL    HW285407   8.457   5.839   5.968
24450SOL     OW85408   7.881   6.210   5.546
24450SOL    HW185409   7.859   6.307   5.552
24450SOL    HW285410   7.965   6.198   5.492
24451SOL     OW85411   8.024   7.150   6.361
24451SOL    HW185412   8.075   7.195   6.288
24451SOL    HW285413   7.944   7.104   6.322
24452SOL     OW85414   8.419   6.127   7.245
24452SOL    HW185415   8.406   6.040   7.292
24452SOL    HW285416   8.466   6.112   7.158
24453SOL     OW85417   8.937   6.954   6.372
24453SOL    HW185418   8.981   6.997   6.451
24453SOL    HW285419   8.972   6.997   6.288
24454SOL     OW85420   7.662   6.820   5.996
24454SOL    HW185421   7.727   6.799   6.069
24454SOL    HW285422   7.680   6.759   5.918
24455SOL     OW85423   8.575   5.826   5.662
24455SOL    HW185424   8.655   5.770   5.686
24455SOL    HW285425   8.526   5.852   5.745
24456SOL     OW85426   7.795   6.031   6.675
24456SOL    HW185427   7.841   5.952   6.636
24456SOL    HW285428   7.748   6.005   6.759
24457SOL     OW85429   7.779   5.840   5.996
24457SOL    HW185430   7.733   5.889   6.070
24457SOL    HW285431   7.737   5.864   5.909
24458SOL     OW85432   8.931   7.326   6.859
24458SOL    HW185433   8.852   7.345   6.800
24458SOL    HW285434   9.012   7.311   6.802
24459SOL     OW85435   9.148   6.132   6.692
24459SOL    HW185436   9.247   6.136   6.682
24459SOL    HW285437   9.117   6.204   6.754
24460SOL     OW85438   9.179   7.300   6.721
24460SOL    HW185439   9.213   7.339   6.807
24460SOL    HW285440   9.257   7.271   6.665
24461SOL     OW85441   8.293   6.088   6.372
24461SOL    HW185442   8.393   6.096   6.372
24461SOL    HW285443   8.257   6.112   6.282
24462SOL     OW85444   8.633   6.498   5.706
24462SOL    HW185445   8.655   6.452   5.791
24462SOL    HW285446   8.590   6.433   5.643
24463SOL     OW85447   8.376   5.903   7.383
24463SOL    HW185448   8.464   5.872   7.418
24463SOL    HW285449   8.308   5.897   7.456
24464SOL     OW85450   9.135   6.211   5.912
24464SOL    HW185451   9.086   6.124   5.909
24464SOL    HW285452   9.188   6.216   5.997
24465SOL     OW85453   8.378   7.312   5.690
24465SOL    HW185454   8.418   7.259   5.615
24465SOL    HW285455   8.395   7.266   5.777
24466SOL     OW85456   8.056   5.562   7.155
24466SOL    HW185457   8.121   5.485   7.161
24466SOL    HW285458   8.069   5.622   7.234
24467SOL     OW85459   9.007   6.201   6.464
24467SOL    HW185460   9.002   6.301   6.463
24467SOL    HW285461   9.066   6.171   6.539
24468SOL     OW85462   8.007   6.679   7.410
24468SOL    HW185463   8.002   6.769   7.366
24468SOL    HW285464   8.059   6.687   7.495
24469SOL     OW85465   8.783   5.514   6.400
24469SOL    HW185466   8.727   5.597   6.390
24469SOL    HW285467   8.872   5.529   6.358
24470SOL     OW85468   7.449   6.295   6.096
24470SOL    HW185469   7.459   6.233   6.174
24470SOL    HW285470   7.412   6.383   6.127
24471SOL     OW85471   7.699   5.770   6.374
24471SOL    HW185472   7.767   5.799   6.442
24471SOL    HW285473   7.719   5.677   6.343
24472SOL     OW85474   7.737   5.733   6.772
24472SOL    HW185475   7.730   5.633   6.779
24472SOL    HW285476   7.807   5.757   6.704
24473SOL     OW85477   8.523   6.395   6.375
24473SOL    HW185478   8.553   6.437   6.290
24473SOL    HW285479   8.531   6.296   6.369
24474SOL     OW85480   7.580   7.079   5.930
24474SOL    HW185481   7.612   6.986   5.946
24474SOL    HW285482   7.635   7.122   5.859
24475SOL     OW85483   8.878   6.973   6.799
24475SOL    HW185484   8.830   7.005   6.718
24475SOL    HW285485   8.812   6.952   6.871
24476SOL     OW85486   7.584   7.169   6.196
24476SOL    HW185487   7.490   7.178   6.227
24476SOL    HW285488   7.586   7.155   6.097
24477SOL     OW85489   9.148   6.967   6.819
24477SOL    HW185490   9.179   7.005   6.906
24477SOL    HW285491   9.048   6.967   6.816
24478SOL     OW85492   7.867   6.484   5.565
24478SOL    HW185493   7.842   6.533   5.482
24478SOL    HW285494   7.853   6.543   5.645
24479SOL     OW85495   8.364   6.744   6.735
24479SOL    HW185496   8.402   6.657   6.702
24479SOL    HW285497   8.288   6.772   6.675
24480SOL     OW85498   7.483   6.334   5.729
24480SOL    HW185499   7.557   6.267   5.732
24480SOL    HW285500   7.404   6.299   5.779
24481SOL     OW85501   8.968   6.425   5.935
24481SOL    HW185502   9.032   6.349   5.924
24481SOL    HW285503   8.989   6.496   5.869
24482SOL     OW85504   8.251   7.368   6.550
24482SOL    HW185505   8.283   7.278   6.518
24482SOL    HW285506   8.193   7.356   6.630
24483SOL     OW85507   8.138   6.442   5.617
24483SOL    HW185508   8.164   6.353   5.653
24483SOL    HW285509   8.041   6.442   5.595
24484SOL     OW85510   8.763   5.933   5.942
24484SOL    HW185511   8.719   6.005   5.888
24484SOL    HW285512   8.861   5.950   5.947
24485SOL     OW85513   7.537   5.752   6.971
24485SOL    HW185514   7.612   5.759   6.905
24485SOL    HW285515   7.452   5.783   6.928
24486SOL     OW85516   8.424   6.502   6.611
24486SOL    HW185517   8.469   6.474   6.526
24486SOL    HW285518   8.362   6.429   6.641
24487SOL     OW85519   9.032   5.960   5.992
24487SOL    HW185520   9.125   5.925   5.983
24487SOL    HW285521   9.014   5.982   6.088
24488SOL     OW85522   8.276   7.112   6.463
24488SOL    HW185523   8.315   7.033   6.416
24488SOL    HW285524   8.180   7.123   6.437
24489SOL     OW85525   8.201   5.927   5.791
24489SOL    HW185526   8.138   5.893   5.860
24489SOL    HW285527   8.295   5.922   5.827
24490SOL     OW85528   8.368   6.846   5.691
24490SOL    HW185529   8.421   6.839   5.776
24490SOL    HW285530   8.430   6.848   5.613
24491SOL     OW85531   9.020   7.109   6.166
24491SOL    HW185532   9.015   7.198   6.213
24491SOL    HW285533   9.058   7.121   6.075
24492SOL     OW85534   8.595   6.506   6.131
24492SOL    HW185535   8.659   6.575   6.099
24492SOL    HW285536   8.503   6.529   6.100
24493SOL     OW85537   8.220   7.181   7.170
24493SOL    HW185538   8.182   7.121   7.099
24493SOL    HW285539   8.239   7.127   7.252
24494SOL     OW85540   7.785   6.669   6.447
24494SOL    HW185541   7.701   6.619   6.425
24494SOL    HW285542   7.768   6.727   6.527
24495SOL     OW85543   8.339   6.568   6.050
24495SOL    HW185544   8.295   6.489   6.006
24495SOL    HW285545   8.274   6.612   6.111
24496SOL     OW85546   8.659   6.935   6.977
24496SOL    HW185547   8.695   7.023   7.006
24496SOL    HW285548   8.561   6.943   6.960
24497SOL     OW85549   7.443   5.893   5.958
24497SOL    HW185550   7.505   5.896   5.879
24497SOL    HW285551   7.495   5.911   6.041
24498SOL     OW85552   9.042   7.335   5.739
24498SOL    HW185553   9.131   7.381   5.738
24498SOL    HW285554   9.025   7.294   5.650
24499SOL     OW85555   7.432   7.379   6.938
24499SOL    HW185556   7.391   7.464   6.907
24499SOL    HW285557   7.410   7.364   7.035
24500SOL     OW85558   8.189   6.354   5.947
24500SOL    HW185559   8.095   6.386   5.934
24500SOL    HW285560   8.219   6.303   5.867
24501SOL     OW85561   7.723   6.113   6.423
24501SOL    HW185562   7.794   6.072   6.366
24501SOL    HW285563   7.738   6.090   6.519
24502SOL     OW85564   7.696   7.290   5.763
24502SOL    HW185565   7.785   7.324   5.732
24502SOL    HW285566   7.678   7.323   5.855
24503SOL     OW85567   8.706   7.356   6.702
24503SOL    HW185568   8.722   7.351   6.604
24503SOL    HW285569   8.645   7.282   6.730
24504SOL     OW85570   7.425   6.707   6.498
24504SOL    HW185571   7.331   6.707   6.463
24504SOL    HW285572   7.478   6.636   6.452
24505SOL     OW85573   8.203   5.571   5.984
24505SOL    HW185574   8.174   5.504   5.916
24505SOL    HW285575   8.145   5.652   5.978
24506SOL     OW85576   7.390   6.736   6.020
24506SOL    HW185577   7.471   6.790   6.038
24506SOL    HW285578   7.400   6.689   5.932
24507SOL     OW85579   8.659   5.763   6.394
24507SOL    HW185580   8.678   5.826   6.318
24507SOL    HW285581   8.705   5.796   6.477
24508SOL     OW85582   8.801   5.663   5.716
24508SOL    HW185583   8.874   5.596   5.703
24508SOL    HW285584   8.758   5.648   5.805
24509SOL     OW85585   8.928   5.584   7.008
24509SOL    HW185586   8.947   5.513   6.941
24509SOL    HW285587   8.832   5.611   7.001
24510SOL     OW85588   8.125   5.816   6.263
24510SOL    HW185589   8.076   5.742   6.310
24510SOL    HW285590   8.222   5.813   6.289
24511SOL     OW85591   8.755   6.160   6.564
24511SOL    HW185592   8.845   6.172   6.521
24511SOL    HW285593   8.731   6.242   6.615
24512SOL     OW85594   8.973   5.590   5.996
24512SOL    HW185595   8.997   5.553   5.906
24512SOL    HW285596   8.875   5.611   5.998
24513SOL     OW85597   8.017   6.939   7.324
24513SOL    HW185598   7.967   7.010   7.274
24513SOL    HW285599   8.101   6.979   7.362
24514SOL     OW85600   7.491   6.914   6.658
24514SOL    HW185601   7.470   6.843   6.591
24514SOL    HW285602   7.419   6.919   6.726
24515SOL     OW85603   8.569   6.120   6.366
24515SOL    HW185604   8.615   6.062   6.299
24515SOL    HW285605   8.627   6.132   6.446
24516SOL     OW85606   8.786   5.886   6.607
24516SOL    HW185607   8.770   5.984   6.594
24516SOL    HW285608   8.742   5.857   6.692
24517SOL     OW85609   8.707   6.359   5.933
24517SOL    HW185610   8.661   6.400   6.012
24517SOL    HW285611   8.804   6.381   5.935
24518SOL     OW85612   9.004   6.502   6.194
24518SOL    HW185613   8.973   6.481   6.101
24518SOL    HW285614   8.946   6.453   6.259
24519SOL     OW85615   9.135   6.356   6.856
24519SOL    HW185616   9.065   6.417   6.892
24519SOL    HW285617   9.211   6.350   6.921
24520SOL     OW85618   9.002   5.856   5.713
24520SOL    HW185619   9.026   5.885   5.805
24520SOL    HW285620   8.924   5.793   5.717
24521SOL     OW85621   8.115   7.066   6.932
24521SOL    HW185622   8.054   7.145   6.940
24521SOL    HW285623   8.083   7.007   6.858
24522SOL     OW85624   7.504   5.803   7.243
24522SOL    HW185625   7.514   5.792   7.144
24522SOL    HW285626   7.410   5.781   7.269
24523SOL     OW85627   7.589   5.931   6.184
24523SOL    HW185628   7.545   6.010   6.227
24523SOL    HW285629   7.629   5.872   6.254
24524SOL     OW85630   8.790   7.166   7.043
24524SOL    HW185631   8.718   7.224   7.081
24524SOL    HW285632   8.840   7.217   6.973
24525SOL     OW85633   7.705   6.158   5.759
24525SOL    HW185634   7.779   6.178   5.695
24525SOL    HW285635   7.725   6.201   5.847
24526SOL     OW85636   9.141   5.734   6.895
24526SOL    HW185637   9.060   5.698   6.941
24526SOL    HW285638   9.116   5.776   6.808
24527SOL     OW85639   7.821   7.359   6.253
24527SOL    HW185640   7.737   7.310   6.230
24527SOL    HW285641   7.894   7.330   6.191
24528SOL     OW85642   7.750   6.826   6.672
24528SOL    HW185643   7.761   6.789   6.764
24528SOL    HW285644   7.659   6.868   6.663
24529SOL     OW85645   8.634   7.148   7.377
24529SOL    HW185646   8.615   7.052   7.357
24529SOL    HW285647   8.613   7.204   7.297
24530SOL     OW85648   8.127   6.847   5.976
24530SOL    HW185649   8.144   6.791   5.895
24530SOL    HW285650   8.135   6.791   6.058
24531SOL     OW85651   7.774   6.340   6.278
24531SOL    HW185652   7.871   6.355   6.296
24531SOL    HW285653   7.742   6.261   6.330
24532SOL     OW85654   7.640   5.890   5.761
24532SOL    HW185655   7.682   5.840   5.686
24532SOL    HW285656   7.658   5.988   5.750
24533SOL     OW85657   7.473   6.144   6.321
24533SOL    HW185658   7.399   6.176   6.380
24533SOL    HW285659   7.557   6.139   6.373
24534SOL     OW85660   7.885   6.667   5.775
24534SOL    HW185661   7.985   6.676   5.774
24534SOL    HW285662   7.843   6.754   5.748
24535SOL     OW85663   8.503   6.245   5.586
24535SOL    HW185664   8.451   6.309   5.529
24535SOL    HW285665   8.568   6.194   5.529
24536SOL     OW85666   8.251   6.205   5.722
24536SOL    HW185667   8.341   6.209   5.678
24536SOL    HW285668   8.222   6.110   5.731
24537SOL     OW85669   8.705   5.669   5.972
24537SOL    HW185670   8.613   5.657   6.010
24537SOL    HW285671   8.726   5.767   5.967
24538SOL     OW85672   7.472   5.597   5.715
24538SOL    HW185673   7.551   5.541   5.739
24538SOL    HW285674   7.500   5.693   5.712
24539SOL     OW85675   9.039   6.594   5.735
24539SOL    HW185676   9.137   6.609   5.746
24539SOL    HW285677   9.018   6.582   5.638
24540SOL     OW85678   7.976   6.234   6.621
24540SOL    HW185679   7.978   6.308   6.689
24540SOL    HW285680   7.904   6.169   6.645
24541SOL     OW85681   8.442   5.690   6.069
24541SOL    HW185682   8.426   5.704   6.167
24541SOL    HW285683   8.367   5.637   6.030
24542SOL     OW85684   8.591   7.311   7.156
24542SOL    HW185685   8.508   7.333   7.105
24542SOL    HW285686   8.628   7.395   7.196
24543SOL     OW85687   8.000   5.611   6.395
24543SOL    HW185688   7.927   5.558   6.352
24543SOL    HW285689   8.079   5.552   6.413
24544SOL     OW85690   7.683   7.353   6.809
24544SOL    HW185691   7.664   7.292   6.732
24544SOL    HW285692   7.601   7.362   6.865
24545SOL     OW85693   8.042   6.587   6.422
24545SOL    HW185694   8.048   6.489   6.404
24545SOL    HW285695   7.946   6.612   6.438
24546SOL     OW85696   7.678   5.586   6.023
24546SOL    HW185697   7.719   5.676   6.014
24546SOL    HW285698   7.579   5.595   6.036
24547SOL     OW85699   8.158   6.175   7.340
24547SOL    HW185700   8.162   6.268   7.377
24547SOL    HW285701   8.244   6.153   7.294
24548SOL     OW85702   7.462   6.611   5.783
24548SOL    HW185703   7.485   6.516   5.765
24548SOL    HW285704   7.509   6.670   5.717
24549SOL     OW85705   9.151   5.787   6.397
24549SOL    HW185706   9.127   5.806   6.492
24549SOL    HW285707   9.248   5.767   6.390
24550SOL     OW85708   8.172   6.798   6.542
24550SOL    HW185709   8.128   6.716   6.507
24550SOL    HW285710   8.223   6.843   6.468
24551SOL     OW85711   8.613   6.130   5.827
24551SOL    HW185712   8.647   6.212   5.873
24551SOL    HW285713   8.571   6.156   5.740
24552SOL     OW85714   8.957   7.020   7.197
24552SOL    HW185715   8.915   6.930   7.214
24552SOL    HW285716   8.896   7.075   7.140
24553SOL     OW85717   8.196   7.025   5.564
24553SOL    HW185718   8.147   7.083   5.629
24553SOL    HW285719   8.260   6.966   5.613
24554SOL     OW85720   8.006   7.215   6.629
24554SOL    HW185721   8.003   7.201   6.530
24554SOL    HW285722   8.008   7.126   6.676
24555SOL     OW85723   8.160   6.709   6.211
24555SOL    HW185724   8.221   6.777   6.251
24555SOL    HW285725   8.119   6.655   6.284
24556SOL     OW85726   8.314   7.025   6.091
24556SOL    HW185727   8.392   7.050   6.033
24556SOL    HW285728   8.250   6.970   6.038
24557SOL     OW85729   7.573   6.522   6.350
24557SOL    HW185730   7.640   6.456   6.317
24557SOL    HW285731   7.491   6.519   6.291
24558SOL     OW85732   8.352   7.371   7.021
24558SOL    HW185733   8.313   7.295   7.073
24558SOL    HW285734   8.278   7.426   6.982
24559SOL     OW85735   7.920   5.916   7.354
24559SOL    HW185736   8.019   5.906   7.343
24559SOL    HW285737   7.897   6.013   7.363
24560SOL     OW85738   7.931   6.430   5.910
24560SOL    HW185739   7.904   6.517   5.868
24560SOL    HW285740   7.849   6.382   5.943
24561SOL     OW85741   8.974   6.472   6.484
24561SOL    HW185742   9.026   6.549   6.447
24561SOL    HW285743   8.905   6.505   6.548
24562SOL     OW85744   7.410   5.633   6.038
24562SOL    HW185745   7.316   5.599   6.026
24562SOL    HW285746   7.414   5.728   6.009
24563SOL     OW85747   8.603   5.591   7.381
24563SOL    HW185748   8.683   5.540   7.414
24563SOL    HW285749   8.601   5.681   7.425
24564SOL     OW85750   7.902   7.161   7.201
24564SOL    HW185751   7.908   7.238   7.265
24564SOL    HW285752   7.907   7.196   7.107
24565SOL     OW85753   9.209   7.032   7.083
24565SOL    HW185754   9.251   7.118   7.111
24565SOL    HW285755   9.118   7.024   7.124
24566SOL     OW85756   7.826   7.042   6.202
24566SOL    HW185757   7.823   6.942   6.204
24566SOL    HW285758   7.734   7.079   6.209
24567SOL     OW85759   8.544   7.156   6.780
24567SOL    HW185760   8.474   7.104   6.830
24567SOL    HW285761   8.591   7.095   6.716
24568SOL     OW85762   7.571   7.176   6.604
24568SOL    HW185763   7.549   7.080   6.621
24568SOL    HW285764   7.611   7.186   6.513
24569SOL     OW85765   8.387   5.726   6.336
24569SOL    HW185766   8.480   5.742   6.370
24569SOL    HW285767   8.343   5.657   6.393
24570SOL     OW85768   8.473   6.796   5.946
24570SOL    HW185769   8.528   6.833   6.022
24570SOL    HW285770   8.429   6.711   5.976
24571SOL     OW85771   8.999   5.992   6.272
24571SOL    HW185772   9.009   6.074   6.328
24571SOL    HW285773   9.055   5.919   6.310
24572SOL     OW85774   8.157   6.685   5.753
24572SOL    HW185775   8.235   6.741   5.725
24572SOL    HW285776   8.170   6.592   5.719
24573SOL     OW85777   8.186   5.667   5.675
24573SOL    HW185778   8.267   5.609   5.691
24573SOL    HW285779   8.203   5.759   5.710
24574SOL     OW85780   7.934   6.025   6.274
24574SOL    HW185781   7.993   5.945   6.288
24574SOL    HW285782   7.985   6.094   6.222
24575SOL     OW85783   9.189   6.712   6.909
24575SOL    HW185784   9.174   6.806   6.877
24575SOL    HW285785   9.229   6.657   6.836
24576SOL     OW85786   7.588   6.781   5.612
24576SOL    HW185787   7.559   6.804   5.518
24576SOL    HW285788   7.662   6.842   5.639
24577SOL     OW85789   8.033   7.168   5.723
24577SOL    HW185790   7.992   7.257   5.705
24577SOL    HW285791   7.997   7.132   5.810
24578SOL     OW85792   8.733   6.688   6.890
24578SOL    HW185793   8.652   6.630   6.899
24578SOL    HW285794   8.712   6.779   6.924
24579SOL     OW85795   7.931   7.282   6.950
24579SOL    HW185796   7.993   7.359   6.937
24579SOL    HW285797   7.849   7.295   6.894
24580SOL     OW85798   7.420   6.075   7.495
24580SOL    HW185799   7.426   6.005   7.424
24580SOL    HW285800   7.512   6.108   7.518
24581SOL     OW85801   9.064   7.084   6.572
24581SOL    HW185802   9.083   7.180   6.592
24581SOL    HW285803   9.090   7.028   6.651
24582SOL     OW85804   7.346   6.526   6.192
24582SOL    HW185805   7.359   6.606   6.132
24582SOL    HW285806   7.249   6.517   6.215
24583SOL     OW85807   9.076   6.706   6.363
24583SOL    HW185808   9.029   6.794   6.359
24583SOL    HW285809   9.053   6.653   6.281
24584SOL     OW85810   8.109   6.000   6.554
24584SOL    HW185811   8.184   6.015   6.490
24584SOL    HW285812   8.075   6.089   6.587
24585SOL     OW85813   8.006   6.943   6.707
24585SOL    HW185814   7.914   6.911   6.686
24585SOL    HW285815   8.072   6.895   6.650
24586SOL     OW85816   9.041   7.257   7.322
24586SOL    HW185817   9.008   7.166   7.297
24586SOL    HW285818   9.017   7.322   7.250
24587SOL     OW85819   8.774   6.681   6.023
24587SOL    HW185820   8.859   6.726   6.049
24587SOL    HW285821   8.750   6.706   5.929
24588SOL     OW85822   8.056   5.817   5.999
24588SOL    HW185823   7.956   5.823   5.994
24588SOL    HW285824   8.083   5.817   6.095
24589SOL     OW85825   9.018   5.573   6.271
24589SOL    HW185826   9.004   5.591   6.173
24589SOL    HW285827   9.068   5.649   6.312
24590SOL     OW85828   8.038   6.322   6.363
24590SOL    HW185829   8.023   6.277   6.452
24590SOL    HW285830   8.098   6.265   6.307
24591SOL     OW85831   8.689   7.020   6.596
24591SOL    HW185832   8.696   6.925   6.567
24591SOL    HW285833   8.678   7.079   6.516
24592SOL     OW85834   8.733   5.957   6.214
24592SOL    HW185835   8.730   5.948   6.114
24592SOL    HW285836   8.827   5.972   6.243
24593SOL     OW85837   8.503   6.956   8.128
24593SOL    HW185838   8.588   7.008   8.137
24593SOL    HW285839   8.476   6.952   8.032
24594SOL     OW85840   8.962   6.836   7.963
24594SOL    HW185841   8.967   6.894   8.045
24594SOL    HW285842   9.051   6.795   7.946
24595SOL     OW85843   8.982   6.196   8.785
24595SOL    HW185844   8.917   6.144   8.841
24595SOL    HW285845   9.037   6.255   8.844
24596SOL     OW85846   7.732   5.722   7.358
24596SOL    HW185847   7.649   5.750   7.309
24596SOL    HW285848   7.804   5.790   7.343
24597SOL     OW85849   8.726   7.103   8.202
24597SOL    HW185850   8.739   7.201   8.214
24597SOL    HW285851   8.815   7.059   8.188
24598SOL     OW85852   8.639   5.574   8.689
24598SOL    HW185853   8.574   5.520   8.742
24598SOL    HW285854   8.686   5.516   8.623
24599SOL     OW85855   8.384   6.420   9.107
24599SOL    HW185856   8.359   6.340   9.052
24599SOL    HW285857   8.304   6.452   9.157
24600SOL     OW85858   7.913   5.571   7.501
24600SOL    HW185859   8.005   5.600   7.475
24600SOL    HW285860   7.846   5.625   7.450
24601SOL     OW85861   8.979   6.608   8.942
24601SOL    HW185862   8.885   6.632   8.920
24601SOL    HW285863   9.038   6.630   8.864
24602SOL     OW85864   8.832   6.598   8.619
24602SOL    HW185865   8.782   6.615   8.704
24602SOL    HW285866   8.914   6.655   8.616
24603SOL     OW85867   8.378   6.908   8.868
24603SOL    HW185868   8.293   6.959   8.854
24603SOL    HW285869   8.376   6.825   8.813
24604SOL     OW85870   7.946   6.610   8.076
24604SOL    HW185871   7.899   6.679   8.132
24604SOL    HW285872   8.043   6.608   8.100
24605SOL     OW85873   8.128   6.196   7.923
24605SOL    HW185874   8.154   6.282   7.879
24605SOL    HW285875   8.098   6.130   7.854
24606SOL     OW85876   8.698   6.053   9.186
24606SOL    HW185877   8.795   6.042   9.205
24606SOL    HW285878   8.646   5.984   9.236
24607SOL     OW85879   7.933   5.850   8.409
24607SOL    HW185880   7.992   5.930   8.409
24607SOL    HW285881   7.980   5.774   8.364
24608SOL     OW85882   7.707   6.312   7.780
24608SOL    HW185883   7.736   6.329   7.874
24608SOL    HW285884   7.621   6.359   7.762
24609SOL     OW85885   9.186   7.218   7.803
24609SOL    HW185886   9.266   7.162   7.784
24609SOL    HW285887   9.138   7.238   7.717
24610SOL     OW85888   9.042   5.863   8.522
24610SOL    HW185889   9.077   5.955   8.541
24610SOL    HW285890   8.943   5.867   8.512
24611SOL     OW85891   8.449   5.899   7.724
24611SOL    HW185892   8.500   5.985   7.729
24611SOL    HW285893   8.443   5.859   7.816
24612SOL     OW85894   7.566   6.586   9.123
24612SOL    HW185895   7.664   6.605   9.115
24612SOL    HW285896   7.549   6.530   9.204
24613SOL     OW85897   7.891   6.192   7.392
24613SOL    HW185898   7.867   6.289   7.383
24613SOL    HW285899   7.988   6.180   7.372
24614SOL     OW85900   8.340   6.170   8.993
24614SOL    HW185901   8.357   6.106   9.068
24614SOL    HW285902   8.423   6.179   8.937
24615SOL     OW85903   8.981   6.988   8.197
24615SOL    HW185904   9.000   7.014   8.292
24615SOL    HW285905   9.017   7.058   8.136
24616SOL     OW85906   8.610   5.836   7.510
24616SOL    HW185907   8.695   5.887   7.518
24616SOL    HW285908   8.557   5.847   7.595
24617SOL     OW85909   7.833   6.082   8.628
24617SOL    HW185910   7.835   5.982   8.621
24617SOL    HW285911   7.782   6.108   8.710
24618SOL     OW85912   8.786   6.322   8.639
24618SOL    HW185913   8.797   6.421   8.633
24618SOL    HW285914   8.863   6.282   8.688
24619SOL     OW85915   7.767   5.796   7.811
24619SOL    HW185916   7.723   5.850   7.882
24619SOL    HW285917   7.725   5.816   7.722
24620SOL     OW85918   8.925   7.278   8.700
24620SOL    HW185919   8.849   7.277   8.635
24620SOL    HW285920   9.012   7.278   8.649
24621SOL     OW85921   9.139   6.111   8.579
24621SOL    HW185922   9.229   6.154   8.580
24621SOL    HW285923   9.085   6.143   8.656
24622SOL     OW85924   9.173   7.279   8.558
24622SOL    HW185925   9.210   7.313   8.644
24622SOL    HW285926   9.248   7.262   8.494
24623SOL     OW85927   8.289   6.026   8.066
24623SOL    HW185928   8.351   6.071   8.130
24623SOL    HW285929   8.244   6.095   8.009
24624SOL     OW85930   8.619   6.498   7.570
24624SOL    HW185931   8.663   6.434   7.632
24624SOL    HW285932   8.561   6.561   7.622
24625SOL     OW85933   8.357   6.009   9.213
24625SOL    HW185934   8.435   5.952   9.240
24625SOL    HW285935   8.287   6.005   9.284
24626SOL     OW85936   8.309   7.284   7.564
24626SOL    HW185937   8.385   7.247   7.617
24626SOL    HW285938   8.255   7.345   7.622
24627SOL     OW85939   9.098   6.218   8.332
24627SOL    HW185940   9.075   6.315   8.345
24627SOL    HW285941   9.110   6.175   8.421
24628SOL     OW85942   8.480   6.873   9.135
24628SOL    HW185943   8.526   6.784   9.128
24628SOL    HW285944   8.429   6.890   9.050
24629SOL     OW85945   8.172   6.698   9.100
24629SOL    HW185946   8.101   6.766   9.119
24629SOL    HW285947   8.178   6.635   9.177
24630SOL     OW85948   8.774   5.524   8.263
24630SOL    HW185949   8.723   5.610   8.267
24630SOL    HW285950   8.863   5.539   8.222
24631SOL     OW85951   9.154   5.741   9.152
24631SOL    HW185952   9.129   5.776   9.243
24631SOL    HW285953   9.138   5.643   9.149
24632SOL     OW85954   7.330   6.167   7.992
24632SOL    HW185955   7.398   6.138   8.059
24632SOL    HW285956   7.327   6.267   7.989
24633SOL     OW85957   7.753   5.763   8.183
24633SOL    HW185958   7.798   5.799   8.264
24633SOL    HW285959   7.806   5.688   8.145
24634SOL     OW85960   7.777   5.763   8.623
24634SOL    HW185961   7.721   5.682   8.608
24634SOL    HW285962   7.828   5.784   8.540
24635SOL     OW85963   8.426   6.382   8.362
24635SOL    HW185964   8.329   6.407   8.369
24635SOL    HW285965   8.435   6.295   8.314
24636SOL     OW85966   8.862   6.906   8.626
24636SOL    HW185967   8.856   6.966   8.546
24636SOL    HW285968   8.778   6.912   8.679
24637SOL     OW85969   9.131   6.926   8.668
24637SOL    HW185970   9.158   6.960   8.758
24637SOL    HW285971   9.031   6.916   8.665
24638SOL     OW85972   7.840   6.467   7.391
24638SOL    HW185973   7.751   6.492   7.355
24638SOL    HW285974   7.901   6.546   7.388
24639SOL     OW85975   8.382   6.687   8.702
24639SOL    HW185976   8.438   6.605   8.690
24639SOL    HW285977   8.326   6.702   8.620
24640SOL     OW85978   7.459   6.423   7.713
24640SOL    HW185979   7.401   6.500   7.687
24640SOL    HW285980   7.405   6.339   7.714
24641SOL     OW85981   8.974   6.404   7.875
24641SOL    HW185982   9.054   6.346   7.892
24641SOL    HW285983   8.997   6.472   7.805
24642SOL     OW85984   8.396   7.288   8.410
24642SOL    HW185985   8.367   7.205   8.361
24642SOL    HW285986   8.410   7.266   8.506
24643SOL     OW85987   8.143   6.425   7.442
24643SOL    HW185988   8.084   6.408   7.521
24643SOL    HW285989   8.121   6.515   7.404
24644SOL     OW85990   7.695   6.110   8.872
24644SOL    HW185991   7.644   6.029   8.841
24644SOL    HW285992   7.684   6.121   8.971
24645SOL     OW85993   7.575   5.877   8.785
24645SOL    HW185994   7.640   5.829   8.725
24645SOL    HW285995   7.495   5.904   8.732
24646SOL     OW85996   8.451   6.419   8.642
24646SOL    HW185997   8.460   6.403   8.543
24646SOL    HW285998   8.370   6.372   8.676
24647SOL     OW85999   8.334   7.040   8.321
24647SOL    HW186000   8.388   7.014   8.241
24647SOL    HW286001   8.264   6.970   8.338
24648SOL     OW86002   8.209   5.868   7.608
24648SOL    HW186003   8.139   5.852   7.678
24648SOL    HW286004   8.298   5.878   7.652
24649SOL     OW86005   8.402   6.837   7.551
24649SOL    HW186006   8.434   6.794   7.635
24649SOL    HW286007   8.477   6.845   7.487
24650SOL     OW86008   9.061   7.187   8.043
24650SOL    HW186009   9.041   7.279   8.074
24650SOL    HW286010   9.104   7.191   7.953
24651SOL     OW86011   8.584   6.431   7.999
24651SOL    HW186012   8.608   6.465   8.089
24651SOL    HW286013   8.495   6.467   7.972
24652SOL     OW86014   8.228   7.191   9.047
24652SOL    HW186015   8.196   7.144   8.964
24652SOL    HW286016   8.214   7.132   9.126
24653SOL     OW86017   8.653   6.505   8.254
24653SOL    HW186018   8.578   6.454   8.295
24653SOL    HW286019   8.671   6.588   8.307
24654SOL     OW86020   8.343   6.542   7.931
24654SOL    HW186021   8.283   6.494   7.866
24654SOL    HW286022   8.289   6.570   8.010
24655SOL     OW86023   8.639   6.934   8.790
24655SOL    HW186024   8.687   7.009   8.836
24655SOL    HW286025   8.546   6.926   8.826
24656SOL     OW86026   7.451   5.877   7.794
24656SOL    HW186027   7.506   5.880   7.710
24656SOL    HW286028   7.508   5.904   7.871
24657SOL     OW86029   9.046   7.352   7.583
24657SOL    HW186030   9.136   7.397   7.582
24657SOL    HW286031   9.031   7.306   7.495
24658SOL     OW86032   8.229   6.313   8.776
24658SOL    HW186033   8.216   6.403   8.816
24658SOL    HW286034   8.260   6.249   8.847
24659SOL     OW86035   7.471   7.395   8.765
24659SOL    HW186036   7.423   7.482   8.775
24659SOL    HW286037   7.453   7.337   8.845
24660SOL     OW86038   8.180   6.413   7.754
24660SOL    HW186039   8.084   6.424   7.727
24660SOL    HW286040   8.219   6.335   7.705
24661SOL     OW86041   7.716   6.086   8.375
24661SOL    HW186042   7.777   6.081   8.296
24661SOL    HW286043   7.770   6.089   8.459
24662SOL     OW86044   8.717   7.263   8.519
24662SOL    HW186045   8.743   7.305   8.432
24662SOL    HW286046   8.675   7.174   8.502
24663SOL     OW86047   7.339   6.767   8.166
24663SOL    HW186048   7.240   6.764   8.176
24663SOL    HW286049   7.381   6.785   8.255
24664SOL     OW86050   8.105   5.541   7.865
24664SOL    HW186051   8.106   5.484   7.782
24664SOL    HW286052   8.100   5.637   7.839
24665SOL     OW86053   7.382   6.724   7.904
24665SOL    HW186054   7.374   6.736   8.003
24665SOL    HW286055   7.477   6.739   7.876
24666SOL     OW86056   8.988   5.837   8.949
24666SOL    HW186057   8.942   5.926   8.958
24666SOL    HW286058   9.048   5.823   9.028
24667SOL     OW86059   8.652   5.770   8.285
24667SOL    HW186060   8.682   5.831   8.211
24667SOL    HW286061   8.688   5.804   8.372
24668SOL     OW86062   8.820   5.439   7.439
24668SOL    HW186063   8.901   5.454   7.382
24668SOL    HW286064   8.795   5.342   7.436
24669SOL     OW86065   8.969   5.562   8.936
24669SOL    HW186066   8.969   5.535   8.840
24669SOL    HW286067   8.967   5.662   8.943
24670SOL     OW86068   8.061   5.880   8.089
24670SOL    HW186069   8.064   5.802   8.151
24670SOL    HW286070   8.149   5.929   8.092
24671SOL     OW86071   8.653   6.140   8.490
24671SOL    HW186072   8.682   6.159   8.396
24671SOL    HW286073   8.694   6.208   8.552
24672SOL     OW86074   7.965   6.904   9.119
24672SOL    HW186075   7.917   6.971   9.063
24672SOL    HW286076   8.044   6.947   9.163
24673SOL     OW86077   7.842   6.648   9.096
24673SOL    HW186078   7.874   6.601   9.014
24673SOL    HW286079   7.875   6.742   9.096
24674SOL     OW86080   8.454   6.136   8.246
24674SOL    HW186081   8.552   6.140   8.229
24674SOL    HW286082   8.437   6.084   8.330
24675SOL     OW86083   9.158   6.146   9.107
24675SOL    HW186084   9.143   6.228   9.053
24675SOL    HW286085   9.256   6.128   9.115
24676SOL     OW86086   8.760   5.888   8.515
24676SOL    HW186087   8.726   5.982   8.507
24676SOL    HW286088   8.752   5.858   8.610
24677SOL     OW86089   8.960   6.004   9.233
24677SOL    HW186090   9.034   6.055   9.190
24677SOL    HW286091   8.998   5.936   9.296
24678SOL     OW86092   8.723   6.348   7.781
24678SOL    HW186093   8.665   6.376   7.858
24678SOL    HW286094   8.819   6.356   7.807
24679SOL     OW86095   8.905   6.524   8.118
24679SOL    HW186096   8.907   6.484   8.027
24679SOL    HW286097   8.814   6.511   8.158
24680SOL     OW86098   9.127   6.370   8.934
24680SOL    HW186099   9.064   6.448   8.936
24680SOL    HW286100   9.221   6.403   8.931
24681SOL     OW86101   8.168   7.094   8.796
24681SOL    HW186102   8.082   7.144   8.786
24681SOL    HW286103   8.226   7.112   8.717
24682SOL     OW86104   7.557   5.744   9.039
24682SOL    HW186105   7.567   5.792   8.951
24682SOL    HW286106   7.467   5.702   9.044
24683SOL     OW86107   7.432   7.236   8.991
24683SOL    HW186108   7.519   7.241   9.041
24683SOL    HW286109   7.356   7.244   9.056
24684SOL     OW86110   7.625   5.923   8.008
24684SOL    HW186111   7.576   5.994   8.060
24684SOL    HW286112   7.663   5.856   8.072
24685SOL     OW86113   8.777   7.138   8.898
24685SOL    HW186114   8.719   7.202   8.949
24685SOL    HW286115   8.835   7.188   8.835
24686SOL     OW86116   7.688   6.124   7.571
24686SOL    HW186117   7.761   6.145   7.506
24686SOL    HW286118   7.695   6.185   7.650
24687SOL     OW86119   9.173   5.771   8.751
24687SOL    HW186120   9.109   5.799   8.822
24687SOL    HW286121   9.134   5.790   8.661
24688SOL     OW86122   8.530   7.133   9.240
24688SOL    HW186123   8.511   7.040   9.212
24688SOL    HW286124   8.552   7.189   9.160
24689SOL     OW86125   8.170   6.827   7.855
24689SOL    HW186126   8.166   6.781   7.766
24689SOL    HW286127   8.098   6.792   7.914
24690SOL     OW86128   7.808   6.371   8.036
24690SOL    HW186129   7.860   6.456   8.044
24690SOL    HW286130   7.857   6.297   8.083
24691SOL     OW86131   7.633   5.855   7.581
24691SOL    HW186132   7.671   5.807   7.502
24691SOL    HW286133   7.654   5.953   7.573
24692SOL     OW86134   7.523   6.108   8.178
24692SOL    HW186135   7.533   6.208   8.174
24692SOL    HW286136   7.570   6.072   8.258
24693SOL     OW86137   8.470   6.264   7.483
24693SOL    HW186138   8.459   6.233   7.389
24693SOL    HW286139   8.513   6.354   7.483
24694SOL     OW86140   8.255   6.181   7.634
24694SOL    HW186141   8.333   6.212   7.580
24694SOL    HW286142   8.220   6.095   7.597
24695SOL     OW86143   8.790   6.051   8.920
24695SOL    HW186144   8.748   6.059   9.011
24695SOL    HW286145   8.749   5.976   8.870
24696SOL     OW86146   7.468   5.602   7.558
24696SOL    HW186147   7.542   5.540   7.583
24696SOL    HW286148   7.500   5.697   7.563
24697SOL     OW86149   9.004   6.597   7.682
24697SOL    HW186150   9.098   6.622   7.659
24697SOL    HW286151   8.944   6.619   7.605
24698SOL     OW86152   8.045   6.264   8.580
24698SOL    HW186153   8.104   6.278   8.659
24698SOL    HW286154   7.964   6.213   8.607
24699SOL     OW86155   8.207   6.567   8.870
24699SOL    HW186156   8.273   6.613   8.811
24699SOL    HW286157   8.203   6.614   8.958
24700SOL     OW86158   8.575   6.614   9.079
24700SOL    HW186159   8.496   6.552   9.081
24700SOL    HW286160   8.656   6.566   9.112
24701SOL     OW86161   8.400   5.796   7.974
24701SOL    HW186162   8.360   5.881   8.009
24701SOL    HW286163   8.407   5.729   8.048
24702SOL     OW86164   8.594   7.297   9.025
24702SOL    HW186165   8.518   7.321   8.964
24702SOL    HW286166   8.626   7.378   9.073
24703SOL     OW86167   8.054   5.659   8.257
24703SOL    HW186168   8.005   5.599   8.194
24703SOL    HW286169   8.126   5.607   8.303
24704SOL     OW86170   7.730   7.398   8.666
24704SOL    HW186171   7.726   7.337   8.587
24704SOL    HW286172   7.641   7.399   8.711
24705SOL     OW86173   8.421   6.743   8.278
24705SOL    HW186174   8.449   6.813   8.213
24705SOL    HW286175   8.500   6.717   8.335
24706SOL     OW86176   8.151   6.431   8.380
24706SOL    HW186177   8.124   6.374   8.302
24706SOL    HW286178   8.113   6.392   8.464
24707SOL     OW86179   7.679   5.544   7.872
24707SOL    HW186180   7.717   5.635   7.856
24707SOL    HW286181   7.581   5.552   7.893
24708SOL     OW86182   8.076   6.156   9.103
24708SOL    HW186183   8.022   6.202   9.032
24708SOL    HW286184   8.173   6.158   9.078
24709SOL     OW86185   9.130   5.811   8.268
24709SOL    HW186186   9.105   5.819   8.364
24709SOL    HW286187   9.228   5.831   8.257
24710SOL     OW86188   8.235   6.689   8.473
24710SOL    HW186189   8.191   6.602   8.449
24710SOL    HW286190   8.301   6.714   8.402
24711SOL     OW86191   8.596   6.124   7.682
24711SOL    HW186192   8.652   6.193   7.729
24711SOL    HW286193   8.549   6.167   7.605
24712SOL     OW86194   8.942   6.987   9.059
24712SOL    HW186195   8.902   6.907   9.104
24712SOL    HW286196   8.873   7.030   9.001
24713SOL     OW86197   8.255   7.050   7.420
24713SOL    HW186198   8.269   7.136   7.470
24713SOL    HW286199   8.301   6.976   7.468
24714SOL     OW86200   8.208   6.608   8.165
24714SOL    HW186201   8.287   6.662   8.194
24714SOL    HW286202   8.185   6.541   8.236
24715SOL     OW86203   8.417   6.949   7.876
24715SOL    HW186204   8.436   7.009   7.799
24715SOL    HW286205   8.326   6.907   7.865
24716SOL     OW86206   7.559   6.371   8.161
24716SOL    HW186207   7.647   6.385   8.115
24716SOL    HW286208   7.486   6.413   8.107
24717SOL     OW86209   8.370   7.344   8.865
24717SOL    HW186210   8.327   7.290   8.937
24717SOL    HW286211   8.310   7.418   8.837
24718SOL     OW86212   8.656   6.722   8.430
24718SOL    HW186213   8.653   6.820   8.446
24718SOL    HW286214   8.714   6.678   8.498
24719SOL     OW86215   7.901   5.944   9.088
24719SOL    HW186216   7.908   5.913   8.993
24719SOL    HW286217   7.970   6.013   9.106
24720SOL     OW86218   7.931   6.406   7.644
24720SOL    HW186219   7.891   6.433   7.556
24720SOL    HW286220   7.859   6.370   7.703
24721SOL     OW86221   9.032   6.478   8.411
24721SOL    HW186222   9.036   6.566   8.362
24721SOL    HW286223   8.961   6.483   8.482
24722SOL     OW86224   8.747   5.809   8.779
24722SOL    HW186225   8.833   5.790   8.826
24722SOL    HW286226   8.703   5.724   8.752
24723SOL     OW86227   7.411   5.618   7.885
24723SOL    HW186228   7.317   5.587   7.872
24723SOL    HW286229   7.420   5.712   7.851
24724SOL     OW86230   7.852   7.124   9.002
24724SOL    HW186231   7.780   7.174   9.050
24724SOL    HW286232   7.891   7.182   8.931
24725SOL     OW86233   9.183   6.996   8.927
24725SOL    HW186234   9.227   7.082   8.953
24725SOL    HW286235   9.096   6.987   8.976
24726SOL     OW86236   8.399   6.025   8.492
24726SOL    HW186237   8.484   6.073   8.513
24726SOL    HW286238   8.396   5.938   8.543
24727SOL     OW86239   8.417   7.164   8.661
24727SOL    HW186240   8.407   7.222   8.742
24727SOL    HW286241   8.484   7.092   8.679
24728SOL     OW86242   7.666   7.289   9.142
24728SOL    HW186243   7.698   7.384   9.138
24728SOL    HW286244   7.655   7.262   9.238
24729SOL     OW86245   7.473   6.847   9.094
24729SOL    HW186246   7.490   6.749   9.084
24729SOL    HW286247   7.409   6.877   9.023
24730SOL     OW86248   8.414   5.636   8.204
24730SOL    HW186249   8.498   5.680   8.235
24730SOL    HW286250   8.359   5.609   8.283
24731SOL     OW86251   8.505   6.674   7.747
24731SOL    HW186252   8.596   6.697   7.782
24731SOL    HW286253   8.448   6.639   7.822
24732SOL     OW86254   8.949   6.021   8.219
24732SOL    HW186255   9.005   6.097   8.253
24732SOL    HW286256   9.004   5.938   8.216
24733SOL     OW86257   8.183   6.683   7.621
24733SOL    HW186258   8.260   6.734   7.584
24733SOL    HW286259   8.214   6.592   7.649
24734SOL     OW86260   8.156   5.669   7.419
24734SOL    HW186261   8.246   5.635   7.390
24734SOL    HW286262   8.168   5.742   7.487
24735SOL     OW86263   7.855   6.061   8.132
24735SOL    HW186264   7.931   5.998   8.120
24735SOL    HW286265   7.780   6.035   8.070
24736SOL     OW86266   7.941   6.530   8.861
24736SOL    HW186267   8.040   6.543   8.865
24736SOL    HW286268   7.906   6.569   8.776
24737SOL     OW86269   9.126   6.656   8.716
24737SOL    HW186270   9.138   6.754   8.700
24737SOL    HW286271   9.189   6.605   8.658
24738SOL     OW86272   8.723   6.680   8.857
24738SOL    HW186273   8.664   6.648   8.931
24738SOL    HW286274   8.695   6.771   8.829
24739SOL     OW86275   7.957   7.293   8.802
24739SOL    HW186276   8.023   7.367   8.812
24739SOL    HW286277   7.874   7.328   8.757
24740SOL     OW86278   7.677   6.099   9.152
24740SOL    HW186279   7.756   6.040   9.137
24740SOL    HW286280   7.676   6.131   9.247
24741SOL     OW86281   9.034   7.067   8.447
24741SOL    HW186282   9.067   7.160   8.466
24741SOL    HW286283   9.075   7.004   8.512
24742SOL     OW86284   7.350   6.450   8.006
24742SOL    HW186285   7.367   6.526   7.944
24742SOL    HW286286   7.257   6.457   8.043
24743SOL     OW86287   7.925   6.261   8.908
24743SOL    HW186288   7.836   6.220   8.887
24743SOL    HW286289   7.921   6.359   8.891
24744SOL     OW86290   9.026   6.721   8.265
24744SOL    HW186291   9.004   6.816   8.244
24744SOL    HW286292   8.975   6.661   8.203
24745SOL     OW86293   8.121   6.063   8.407
24745SOL    HW186294   8.217   6.044   8.423
24745SOL    HW286295   8.092   6.139   8.465
24746SOL     OW86296   7.491   6.187   8.500
24746SOL    HW186297   7.467   6.273   8.455
24746SOL    HW286298   7.574   6.149   8.460
24747SOL     OW86299   9.031   7.229   9.156
24747SOL    HW186300   8.999   7.137   9.134
24747SOL    HW286301   9.001   7.293   9.086
24748SOL     OW86302   8.770   6.713   7.813
24748SOL    HW186303   8.821   6.770   7.878
24748SOL    HW286304   8.831   6.646   7.771
24749SOL     OW86305   8.040   5.812   7.821
24749SOL    HW186306   7.941   5.803   7.807
24749SOL    HW286307   8.057   5.839   7.915
24750SOL     OW86308   9.017   5.588   8.157
24750SOL    HW186309   9.080   5.550   8.089
24750SOL    HW286310   9.055   5.671   8.197
24751SOL     OW86311   8.551   6.227   8.833
24751SOL    HW186312   8.648   6.204   8.843
24751SOL    HW286313   8.542   6.301   8.766
24752SOL     OW86314   8.083   6.259   8.188
24752SOL    HW186315   8.077   6.174   8.241
24752SOL    HW286316   8.094   6.237   8.091
24753SOL     OW86317   8.612   7.012   8.434
24753SOL    HW186318   8.513   7.018   8.426
24753SOL    HW286319   8.654   7.037   8.347
24754SOL     OW86320   8.723   6.170   8.226
24754SOL    HW186321   8.737   6.252   8.170
24754SOL    HW286322   8.803   6.110   8.218
24755SOL     OW86323   8.585   6.947   9.975
24755SOL    HW186324   8.663   6.887   9.960
24755SOL    HW286325   8.545   6.973   9.887
24756SOL     OW86326   8.980   6.759   9.733
24756SOL    HW186327   9.047   6.795   9.798
24756SOL    HW286328   9.026   6.731   9.649
24757SOL     OW86329   7.748   5.768   9.233
24757SOL    HW186330   7.670   5.758   9.171
24757SOL    HW286331   7.815   5.830   9.193
24758SOL     OW86332   7.963   5.619   9.349
24758SOL    HW186333   8.034   5.654   9.288
24758SOL    HW286334   7.876   5.661   9.325
24759SOL     OW86335   8.125   6.145   9.771
24759SOL    HW186336   8.133   6.232   9.721
24759SOL    HW286337   8.088   6.075   9.710
24760SOL     OW86338   7.835   6.927   9.363
24760SOL    HW186339   7.872   6.910   9.271
24760SOL    HW286340   7.879   7.008   9.402
24761SOL     OW86341   7.625   6.329   9.649
24761SOL    HW186342   7.592   6.246   9.694
24761SOL    HW286343   7.583   6.409   9.693
24762SOL     OW86344   9.130   7.118   9.597
24762SOL    HW186345   9.226   7.088   9.590
24762SOL    HW286346   9.111   7.184   9.525
24763SOL     OW86347   8.462   5.921   9.583
24763SOL    HW186348   8.516   6.004   9.592
24763SOL    HW286349   8.474   5.864   9.664
24764SOL     OW86350   7.942   6.245   9.332
24764SOL    HW186351   7.930   6.344   9.326
24764SOL    HW286352   8.000   6.214   9.257
24765SOL     OW86353   9.089   6.885   9.966
24765SOL    HW186354   9.003   6.847   0.000
24765SOL    HW286355   9.071   6.975   9.924
24766SOL     OW86356   7.631   6.830   9.695
24766SOL    HW186357   7.641   6.918   9.741
24766SOL    HW286358   7.722   6.798   9.666
24767SOL     OW86359   8.561   5.861   9.333
24767SOL    HW186360   8.606   5.772   9.332
24767SOL    HW286361   8.526   5.880   9.424
24768SOL     OW86362   7.769   5.809   9.695
24768SOL    HW186363   7.710   5.829   9.773
24768SOL    HW286364   7.725   5.841   9.611
24769SOL     OW86365   9.309   7.341   0.428
24769SOL    HW186366   9.304   7.246   0.399
24769SOL    HW286367   9.315   7.400   0.347
24770SOL     OW86368   8.325   6.003   9.893
24770SOL    HW186369   8.412   6.044   9.921
24770SOL    HW286370   8.269   6.071   9.847
24771SOL     OW86371   8.653   6.520   9.398
24771SOL    HW186372   8.672   6.478   9.487
24771SOL    HW286373   8.611   6.452   9.338
24772SOL     OW86374   9.143   6.222   9.589
24772SOL    HW186375   9.089   6.140   9.571
24772SOL    HW286376   9.204   6.205   9.667
24773SOL     OW86377   8.353   7.298   9.411
24773SOL    HW186378   8.388   7.251   9.330
24773SOL    HW286379   8.398   7.263   9.493
24774SOL     OW86380   7.461   6.157   9.803
24774SOL    HW186381   7.470   6.142   9.901
24774SOL    HW286382   7.384   6.219   9.785
24775SOL     OW86383   7.496   7.072   9.495
24775SOL    HW186384   7.511   6.984   9.449
24775SOL    HW286385   7.560   7.139   9.459
24776SOL     OW86386   7.529   7.098   9.767
24776SOL    HW186387   7.444   7.119   9.816
24776SOL    HW286388   7.508   7.072   9.672
24777SOL     OW86389   7.909   6.518   9.324
24777SOL    HW186390   7.877   6.562   9.240
24777SOL    HW286391   7.889   6.578   9.402
24778SOL     OW86392   7.457   6.409   9.435
24778SOL    HW186393   7.527   6.389   9.504
24778SOL    HW286394   7.379   6.348   9.448
24779SOL     OW86395   8.988   6.440   9.638
24779SOL    HW186396   9.046   6.361   9.617
24779SOL    HW286397   9.012   6.516   9.579
24780SOL     OW86398   8.173   6.477   9.270
24780SOL    HW186399   8.207   6.398   9.320
24780SOL    HW286400   8.078   6.494   9.296
24781SOL     OW86401   8.777   5.979   9.634
24781SOL    HW186402   8.727   6.046   9.579
24781SOL    HW286403   8.874   5.986   9.615
24782SOL     OW86404   9.051   5.959   9.643
24782SOL    HW186405   9.150   5.946   9.633
24782SOL    HW286406   9.028   5.956   9.740
24783SOL     OW86407   8.222   5.990   9.468
24783SOL    HW186408   8.144   5.955   9.520
24783SOL    HW286409   8.307   5.960   9.511
24784SOL     OW86410   8.336   6.851   9.378
24784SOL    HW186411   8.391   6.827   9.458
24784SOL    HW286412   8.393   6.846   9.296
24785SOL     OW86413   9.033   7.120   9.851
24785SOL    HW186414   9.014   7.215   9.874
24785SOL    HW286415   9.069   7.115   9.758
24786SOL     OW86416   8.545   6.382   9.844
24786SOL    HW186417   8.606   6.446   9.890
24786SOL    HW286418   8.470   6.433   9.799
24787SOL     OW86419   8.730   6.544   9.958
24787SOL    HW186420   8.683   6.552   0.047
24787SOL    HW286421   8.771   6.632   9.934
24788SOL     OW86422   8.337   6.534   9.709
24788SOL    HW186423   8.275   6.465   9.672
24788SOL    HW286424   8.301   6.569   9.795
24789SOL     OW86425   7.455   5.913   9.670
24789SOL    HW186426   7.510   5.912   9.586
24789SOL    HW286427   7.466   6.001   9.716
24790SOL     OW86428   9.074   7.315   9.410
24790SOL    HW186429   9.158   7.369   9.403
24790SOL    HW286430   9.050   7.279   9.320
24791SOL     OW86431   8.142   6.369   9.615
24791SOL    HW186432   8.046   6.397   9.607
24791SOL    HW286433   8.173   6.333   9.527
24792SOL     OW86434   7.673   7.287   9.428
24792SOL    HW186435   7.766   7.318   9.406
24792SOL    HW286436   7.655   7.303   9.525
24793SOL     OW86437   8.096   5.631   9.592
24793SOL    HW186438   8.044   5.618   9.507
24793SOL    HW286439   8.084   5.724   9.625
24794SOL     OW86440   7.371   6.751   9.689
24794SOL    HW186441   7.463   6.789   9.697
24794SOL    HW286442   7.353   6.726   9.594
24795SOL     OW86443   8.124   5.824   9.917
24795SOL    HW186444   8.146   5.744   9.973
24795SOL    HW286445   8.205   5.882   9.908
24796SOL     OW86446   8.993   5.595   9.693
24796SOL    HW186447   9.001   5.519   9.628
24796SOL    HW286448   8.902   5.636   9.684
24797SOL     OW86449   8.718   6.384   9.627
24797SOL    HW186450   8.668   6.382   9.713
24797SOL    HW286451   8.814   6.406   9.645
24798SOL     OW86452   8.992   6.464   9.906
24798SOL    HW186453   8.992   6.463   9.806
24798SOL    HW286454   8.898   6.470   9.940
24799SOL     OW86455   9.064   5.807   9.407
24799SOL    HW186456   9.048   5.856   9.493
24799SOL    HW286457   9.088   5.712   9.427
24800SOL     OW86458   7.707   6.162   9.428
24800SOL    HW186459   7.799   6.187   9.399
24800SOL    HW286460   7.675   6.224   9.499
24801SOL     OW86461   7.650   5.899   9.468
24801SOL    HW186462   7.672   5.844   9.387
24801SOL    HW286463   7.668   5.995   9.450
24802SOL     OW86464   7.403   6.187   0.091
24802SOL    HW186465   7.380   6.282   0.069
24802SOL    HW286466   7.493   6.184   0.134
24803SOL     OW86467   7.878   6.710   9.529
24803SOL    HW186468   7.977   6.712   9.540
24803SOL    HW286469   7.848   6.788   9.474
24804SOL     OW86470   8.539   6.271   9.275
24804SOL    HW186471   8.493   6.328   9.208
24804SOL    HW286472   8.597   6.204   9.228
24805SOL     OW86473   8.272   6.256   9.397
24805SOL    HW186474   8.367   6.255   9.364
24805SOL    HW286475   8.245   6.163   9.421
24806SOL     OW86476   8.748   5.713   9.673
24806SOL    HW186477   8.661   5.701   9.722
24806SOL    HW286478   8.761   5.810   9.653
24807SOL     OW86479   7.376   5.595   9.389
24807SOL    HW186480   7.448   5.553   9.333
24807SOL    HW286481   7.407   5.602   9.484
24808SOL     OW86482   9.062   6.633   9.461
24808SOL    HW186483   9.161   6.644   9.458
24808SOL    HW286484   9.027   6.620   9.368
24809SOL     OW86485   8.506   5.743   9.803
24809SOL    HW186486   8.519   5.760   9.901
24809SOL    HW286487   8.431   5.678   9.791
24810SOL     OW86488   7.665   5.554   9.606
24810SOL    HW186489   7.725   5.627   9.641
24810SOL    HW286490   7.571   5.572   9.635
24811SOL     OW86491   7.376   6.671   9.425
24811SOL    HW186492   7.412   6.578   9.425
24811SOL    HW286493   7.448   6.734   9.396
24812SOL     OW86494   9.131   5.728   0.057
24812SOL    HW186495   9.099   5.785   0.133
24812SOL    HW286496   9.217   5.683   0.081
24813SOL     OW86497   8.612   6.160   9.516
24813SOL    HW186498   8.648   6.240   9.565
24813SOL    HW286499   8.579   6.188   9.426
24814SOL     OW86500   8.163   7.027   9.259
24814SOL    HW186501   8.109   7.075   9.329
24814SOL    HW286502   8.229   6.967   9.304
24815SOL     OW86503   8.239   6.612   9.944
24815SOL    HW186504   8.288   6.680   9.999
24815SOL    HW286505   8.236   6.525   9.994
24816SOL     OW86506   7.877   6.458   9.649
24816SOL    HW186507   7.863   6.550   9.614
24816SOL    HW286508   7.791   6.407   9.648
24817SOL     OW86509   7.406   5.640   9.660
24817SOL    HW186510   7.311   5.617   9.678
24817SOL    HW286511   7.420   5.738   9.677
24818SOL     OW86512   8.459   6.759   9.607
24818SOL    HW186513   8.542   6.783   9.658
24818SOL    HW286514   8.424   6.671   9.639
24819SOL     OW86515   9.046   5.956   9.921
24819SOL    HW186516   9.105   6.019   9.971
24819SOL    HW286517   9.063   5.862   9.952
24820SOL     OW86518   8.148   6.709   9.532
24820SOL    HW186519   8.206   6.762   9.470
24820SOL    HW286520   8.205   6.655   9.593
24821SOL     OW86521   8.013   6.081   0.011
24821SOL    HW186522   8.052   5.992   0.037
24821SOL    HW286523   8.051   6.110   9.924
24822SOL     OW86524   7.568   6.854   9.346
24822SOL    HW186525   7.536   6.859   9.252
24822SOL    HW286526   7.665   6.875   9.350
24823SOL     OW86527   7.993   7.146   9.442
24823SOL    HW186528   7.966   7.237   9.409
24823SOL    HW286529   8.033   7.154   9.534
24824SOL     OW86530   7.471   6.508   9.777
24824SOL    HW186531   7.442   6.602   9.756
24824SOL    HW286532   7.391   6.456   9.808
24825SOL     OW86533   8.715   6.814   9.706
24825SOL    HW186534   8.809   6.797   9.736
24825SOL    HW286535   8.710   6.803   9.607
24826SOL     OW86536   8.033   5.892   9.670
24826SOL    HW186537   7.936   5.870   9.669
24826SOL    HW286538   8.072   5.870   9.759
24827SOL     OW86539   9.010   5.509   9.954
24827SOL    HW186540   8.988   5.528   9.859
24827SOL    HW286541   9.058   5.587   9.995
24828SOL     OW86542   8.772   6.027   9.907
24828SOL    HW186543   8.760   6.003   9.810
24828SOL    HW286544   8.865   6.004   9.935
24829SOL     OW86545   8.465   8.865   0.756
24829SOL    HW186546   8.562   8.889   0.753
24829SOL    HW286547   8.423   8.879   0.667
24830SOL     OW86548   8.987   8.655   0.558
24830SOL    HW186549   9.008   8.728   0.624
24830SOL    HW286550   9.071   8.609   0.532
24831SOL     OW86551   8.997   7.991   1.474
24831SOL    HW186552   8.924   7.927   1.499
24831SOL    HW286553   9.053   8.011   1.554
24832SOL     OW86554   7.691   7.635   9.952
24832SOL    HW186555   7.608   7.601   9.907
24832SOL    HW286556   7.753   7.558   9.969
24833SOL     OW86557   8.733   8.942   0.776
24833SOL    HW186558   8.740   9.040   0.795
24833SOL    HW286559   8.824   8.905   0.757
24834SOL     OW86560   8.558   7.464   1.341
24834SOL    HW186561   8.490   7.416   1.397
24834SOL    HW286562   8.597   7.400   1.275
24835SOL     OW86563   7.948   8.862   0.424
24835SOL    HW186564   7.903   8.899   0.505
24835SOL    HW286565   8.021   8.799   0.452
24836SOL     OW86566   9.018   8.459   1.566
24836SOL    HW186567   8.920   8.479   1.553
24836SOL    HW286568   9.067   8.484   1.483
24837SOL     OW86569   8.799   8.483   1.159
24837SOL    HW186570   8.747   8.435   1.230
24837SOL    HW286571   8.826   8.573   1.193
24838SOL     OW86572   8.380   8.760   1.451
24838SOL    HW186573   8.310   8.828   1.428
24838SOL    HW286574   8.382   8.690   1.380
24839SOL     OW86575   7.850   8.597   0.695
24839SOL    HW186576   7.791   8.550   0.760
24839SOL    HW286577   7.944   8.567   0.706
24840SOL     OW86578   8.158   8.040   0.701
24840SOL    HW186579   8.156   8.081   0.610
24840SOL    HW286580   8.253   8.021   0.727
24841SOL     OW86581   8.671   7.909   1.790
24841SOL    HW186582   8.765   7.934   1.811
24841SOL    HW286583   8.636   7.848   1.861
24842SOL     OW86584   7.815   8.793   0.181
24842SOL    HW186585   7.839   8.855   0.106
24842SOL    HW286586   7.851   8.829   0.267
24843SOL     OW86587   7.676   8.131   0.485
24843SOL    HW186588   7.711   8.167   0.571
24843SOL    HW286589   7.583   8.098   0.497
24844SOL     OW86590   8.182   9.098   0.637
24844SOL    HW186591   8.239   9.028   0.594
24844SOL    HW286592   8.167   9.173   0.573
24845SOL     OW86593   9.120   9.022   0.356
24845SOL    HW186594   9.209   8.976   0.353
24845SOL    HW286595   9.090   9.041   0.262
24846SOL     OW86596   9.045   7.716   1.182
24846SOL    HW186597   9.083   7.807   1.196
24846SOL    HW286598   8.962   7.722   1.127
24847SOL     OW86599   7.567   8.423   1.604
24847SOL    HW186600   7.653   8.459   1.639
24847SOL    HW286601   7.515   8.383   1.680
24848SOL     OW86602   7.881   8.083   0.034
24848SOL    HW186603   7.859   8.181   0.036
24848SOL    HW286604   7.955   8.067   9.969
24849SOL     OW86605   8.048   8.981   0.839
24849SOL    HW186606   8.101   9.028   0.768
24849SOL    HW286607   7.969   8.936   0.797
24850SOL     OW86608   9.004   8.841   0.772
24850SOL    HW186609   9.015   8.863   0.869
24850SOL    HW286610   9.063   8.900   0.717
24851SOL     OW86611   7.709   8.636   0.460
24851SOL    HW186612   7.757   8.625   0.547
24851SOL    HW286613   7.764   8.596   0.387
24852SOL     OW86614   8.876   8.184   1.318
24852SOL    HW186615   8.943   8.258   1.310
24852SOL    HW286616   8.911   8.115   1.382
24853SOL     OW86617   7.751   7.582   0.427
24853SOL    HW186618   7.725   7.642   0.503
24853SOL    HW286619   7.730   7.628   0.340
24854SOL     OW86620   8.941   9.087   1.300
24854SOL    HW186621   8.869   9.094   1.231
24854SOL    HW286622   9.030   9.077   1.256
24855SOL     OW86623   9.134   7.971   1.230
24855SOL    HW186624   9.230   7.997   1.234
24855SOL    HW286625   9.093   7.981   1.321
24856SOL     OW86626   9.204   9.103   1.178
24856SOL    HW186627   9.224   9.161   1.257
24856SOL    HW286628   9.288   9.086   1.127
24857SOL     OW86629   8.628   8.407   0.169
24857SOL    HW186630   8.646   8.345   0.246
24857SOL    HW286631   8.544   8.380   0.123
24858SOL     OW86632   9.127   8.101   0.380
24858SOL    HW186633   9.062   8.031   0.352
24858SOL    HW286634   9.182   8.067   0.456
24859SOL     OW86635   8.384   9.174   0.119
24859SOL    HW186636   8.374   9.153   0.022
24859SOL    HW286637   8.400   9.089   0.170
24860SOL     OW86638   8.139   7.390   1.652
24860SOL    HW186639   8.158   7.292   1.655
24860SOL    HW286640   8.146   7.428   1.745
24861SOL     OW86641   9.075   8.090   0.989
24861SOL    HW186642   9.061   8.188   0.998
24861SOL    HW286643   9.100   8.051   1.077
24862SOL     OW86644   8.437   8.729   1.725
24862SOL    HW186645   8.481   8.641   1.740
24862SOL    HW286646   8.410   8.738   1.629
24863SOL     OW86647   9.136   7.598   1.832
24863SOL    HW186648   9.091   7.662   1.895
24863SOL    HW286649   9.189   7.532   1.884
24864SOL     OW86650   7.411   8.070   0.563
24864SOL    HW186651   7.354   8.013   0.623
24864SOL    HW286652   7.405   8.165   0.593
24865SOL     OW86653   7.826   7.619   0.804
24865SOL    HW186654   7.806   7.616   0.902
24865SOL    HW286655   7.843   7.527   0.770
24866SOL     OW86656   7.662   7.707   1.267
24866SOL    HW186657   7.672   7.609   1.255
24866SOL    HW286658   7.691   7.754   1.183
24867SOL     OW86659   8.379   8.262   0.912
24867SOL    HW186660   8.360   8.322   0.834
24867SOL    HW286661   8.394   8.169   0.880
24868SOL     OW86662   7.609   8.901   0.432
24868SOL    HW186663   7.645   8.807   0.429
24868SOL    HW286664   7.662   8.959   0.370
24869SOL     OW86665   8.838   8.741   1.244
24869SOL    HW186666   8.798   8.786   1.164
24869SOL    HW286667   8.775   8.750   1.322
24870SOL     OW86668   7.576   8.969   0.693
24870SOL    HW186669   7.478   8.976   0.712
24870SOL    HW286670   7.589   8.947   0.596
24871SOL     OW86671   9.109   8.764   1.259
24871SOL    HW186672   9.141   8.806   1.344
24871SOL    HW286673   9.009   8.756   1.262
24872SOL     OW86674   7.833   8.354   0.051
24872SOL    HW186675   7.776   8.393   9.979
24872SOL    HW286676   7.834   8.415   0.130
24873SOL     OW86677   8.380   8.574   1.245
24873SOL    HW186678   8.397   8.475   1.241
24873SOL    HW286679   8.299   8.596   1.191
24874SOL     OW86680   7.462   8.156   0.188
24874SOL    HW186681   7.547   8.113   0.218
24874SOL    HW286682   7.386   8.121   0.243
24875SOL     OW86683   8.936   8.292   0.423
24875SOL    HW186684   9.005   8.220   0.410
24875SOL    HW286685   8.956   8.368   0.361
24876SOL     OW86686   8.235   9.232   0.981
24876SOL    HW186687   8.285   9.147   0.968
24876SOL    HW286688   8.153   9.215   1.037
24877SOL     OW86689   8.108   8.336   0.090
24877SOL    HW186690   8.151   8.253   0.125
24877SOL    HW286691   8.011   8.321   0.076
24878SOL     OW86692   8.938   7.931   0.289
24878SOL    HW186693   8.846   7.945   0.253
24878SOL    HW286694   8.963   7.835   0.280
24879SOL     OW86695   7.650   8.070   1.445
24879SOL    HW186696   7.651   7.986   1.391
24879SOL    HW286697   7.646   8.047   1.542
24880SOL     OW86698   8.419   8.307   1.180
24880SOL    HW186699   8.413   8.300   1.081
24880SOL    HW286700   8.359   8.239   1.222
24881SOL     OW86701   8.306   8.964   0.959
24881SOL    HW186702   8.371   8.931   0.891
24881SOL    HW286703   8.213   8.953   0.924
24882SOL     OW86704   8.371   8.681   0.252
24882SOL    HW186705   8.406   8.631   0.330
24882SOL    HW286706   8.424   8.765   0.239
24883SOL     OW86707   9.152   9.021   0.632
24883SOL    HW186708   9.105   9.101   0.668
24883SOL    HW286709   9.143   9.019   0.532
24884SOL     OW86710   8.559   8.218   0.619
24884SOL    HW186711   8.619   8.233   0.698
24884SOL    HW286712   8.481   8.280   0.625
24885SOL     OW86713   8.221   9.025   1.615
24885SOL    HW186714   8.181   8.979   1.536
24885SOL    HW286715   8.214   8.965   1.695
24886SOL     OW86716   8.723   8.233   0.845
24886SOL    HW186717   8.727   8.146   0.895
24886SOL    HW286718   8.725   8.309   0.910
24887SOL     OW86719   7.687   8.466   0.875
24887SOL    HW186720   7.591   8.495   0.881
24887SOL    HW286721   7.725   8.457   0.967
24888SOL     OW86722   8.314   8.354   0.622
24888SOL    HW186723   8.266   8.292   0.560
24888SOL    HW286724   8.248   8.419   0.661
24889SOL     OW86725   8.658   8.762   1.449
24889SOL    HW186726   8.695   8.849   1.480
24889SOL    HW286727   8.558   8.767   1.445
24890SOL     OW86728   7.476   7.724   0.418
24890SOL    HW186729   7.536   7.729   0.339
24890SOL    HW286730   7.528   7.744   0.501
24891SOL     OW86731   9.035   9.116   0.102
24891SOL    HW186732   9.104   9.188   0.094
24891SOL    HW286733   8.944   9.156   0.098
24892SOL     OW86734   7.442   9.223   1.413
24892SOL    HW186735   7.394   9.311   1.412
24892SOL    HW286736   7.432   9.181   1.504
24893SOL     OW86737   8.151   8.191   0.463
24893SOL    HW186738   8.059   8.228   0.452
24893SOL    HW286739   8.186   8.159   0.375
24894SOL     OW86740   7.738   7.850   1.039
24894SOL    HW186741   7.818   7.862   0.979
24894SOL    HW286742   7.707   7.939   1.071
24895SOL     OW86743   7.759   9.094   0.295
24895SOL    HW186744   7.820   9.141   0.232
24895SOL    HW286745   7.732   9.156   0.369
24896SOL     OW86746   8.746   9.098   1.106
24896SOL    HW186747   8.753   9.143   1.017
24896SOL    HW286748   8.713   9.004   1.093
24897SOL     OW86749   7.432   8.539   0.967
24897SOL    HW186750   7.346   8.541   0.915
24897SOL    HW286751   7.425   8.468   1.038
24898SOL     OW86752   8.021   7.512   0.431
24898SOL    HW186753   8.038   7.436   0.367
24898SOL    HW286754   7.924   7.535   0.429
24899SOL     OW86755   7.473   8.490   0.485
24899SOL    HW186756   7.552   8.552   0.487
24899SOL    HW286757   7.450   8.469   0.390
24900SOL     OW86758   8.996   7.615   1.591
24900SOL    HW186759   8.929   7.689   1.588
24900SOL    HW286760   9.038   7.613   1.682
24901SOL     OW86761   8.660   7.902   0.853
24901SOL    HW186762   8.724   7.886   0.778
24901SOL    HW286763   8.693   7.856   0.935
24902SOL     OW86764   8.912   7.420   0.266
24902SOL    HW186765   8.986   7.370   0.222
24902SOL    HW286766   8.825   7.398   0.220
24903SOL     OW86767   8.982   7.343   1.544
24903SOL    HW186768   9.029   7.329   1.457
24903SOL    HW286769   8.974   7.441   1.563
24904SOL     OW86770   8.817   8.062   1.078
24904SOL    HW186771   8.903   8.068   1.028
24904SOL    HW286772   8.826   8.108   1.167
24905SOL     OW86773   9.033   7.330   0.497
24905SOL    HW186774   9.130   7.354   0.489
24905SOL    HW286775   8.981   7.376   0.425
24906SOL     OW86776   7.925   8.778   1.782
24906SOL    HW186777   7.887   8.845   1.718
24906SOL    HW286778   8.023   8.793   1.792
24907SOL     OW86779   7.804   8.525   1.729
24907SOL    HW186780   7.863   8.493   1.654
24907SOL    HW286781   7.836   8.614   1.761
24908SOL     OW86782   7.488   8.759   1.124
24908SOL    HW186783   7.471   8.687   1.057
24908SOL    HW286784   7.413   8.763   1.189
24909SOL     OW86785   8.429   8.026   0.769
24909SOL    HW186786   8.472   8.080   0.697
24909SOL    HW286787   8.497   7.967   0.812
24910SOL     OW86788   9.162   8.010   1.698
24910SOL    HW186789   9.182   8.106   1.681
24910SOL    HW286790   9.226   7.973   1.766
24911SOL     OW86791   8.791   7.790   1.081
24911SOL    HW186792   8.798   7.889   1.090
24911SOL    HW286793   8.758   7.751   1.168
24912SOL     OW86794   8.935   7.933   1.852
24912SOL    HW186795   9.014   7.963   1.797
24912SOL    HW286796   8.965   7.867   1.921
24913SOL     OW86797   8.677   8.222   0.370
24913SOL    HW186798   8.629   8.214   0.458
24913SOL    HW286799   8.773   8.240   0.386
24914SOL     OW86800   8.941   8.334   0.694
24914SOL    HW186801   8.929   8.325   0.595
24914SOL    HW286802   8.865   8.288   0.741
24915SOL     OW86803   9.207   8.257   1.594
24915SOL    HW186804   9.137   8.329   1.589
24915SOL    HW286805   9.268   8.265   1.515
24916SOL     OW86806   9.021   7.671   0.273
24916SOL    HW186807   9.100   7.678   0.333
24916SOL    HW286808   8.974   7.584   0.287
24917SOL     OW86809   8.119   8.909   1.395
24917SOL    HW186810   8.048   8.979   1.383
24917SOL    HW286811   8.087   8.823   1.355
24918SOL     OW86812   7.514   7.660   1.708
24918SOL    HW186813   7.535   7.703   1.620
24918SOL    HW286814   7.436   7.705   1.750
24919SOL     OW86815   7.432   9.091   1.655
24919SOL    HW186816   7.520   9.094   1.702
24919SOL    HW286817   7.358   9.099   1.722
24920SOL     OW86818   7.642   7.734   0.639
24920SOL    HW186819   7.586   7.790   0.700
24920SOL    HW286820   7.715   7.691   0.692
24921SOL     OW86821   8.773   9.001   1.508
24921SOL    HW186822   8.705   9.068   1.539
24921SOL    HW286823   8.821   9.037   1.428
24922SOL     OW86824   7.701   8.006   0.229
24922SOL    HW186825   7.774   8.034   0.166
24922SOL    HW286826   7.718   8.045   0.319
24923SOL     OW86827   9.167   7.572   1.380
24923SOL    HW186828   9.107   7.591   1.458
24923SOL    HW286829   9.128   7.612   1.298
24924SOL     OW86830   7.729   9.195   0.735
24924SOL    HW186831   7.681   9.108   0.737
24924SOL    HW286832   7.733   9.229   0.641
24925SOL     OW86833   7.742   8.709   1.222
24925SOL    HW186834   7.735   8.725   1.320
24925SOL    HW286835   7.656   8.734   1.178
24926SOL     OW86836   8.536   8.974   1.807
24926SOL    HW186837   8.504   8.884   1.775
24926SOL    HW286838   8.550   9.034   1.728
24927SOL     OW86839   8.139   8.682   0.511
24927SOL    HW186840   8.146   8.617   0.435
24927SOL    HW286841   8.137   8.633   0.598
24928SOL     OW86842   7.749   8.237   0.731
24928SOL    HW186843   7.724   8.327   0.767
24928SOL    HW286844   7.837   8.209   0.768
24929SOL     OW86845   7.662   7.735   0.212
24929SOL    HW186846   7.676   7.704   0.118
24929SOL    HW286847   7.689   7.831   0.220
24930SOL     OW86848   7.525   7.859   0.858
24930SOL    HW186849   7.503   7.956   0.850
24930SOL    HW286850   7.597   7.846   0.926
24931SOL     OW86851   7.881   8.539   0.257
24931SOL    HW186852   7.979   8.534   0.275
24931SOL    HW286853   7.858   8.629   0.222
24932SOL     OW86854   8.561   8.116   9.932
24932SOL    HW186855   8.572   8.208   9.895
24932SOL    HW286856   8.637   8.059   9.902
24933SOL     OW86857   8.219   8.114   0.204
24933SOL    HW186858   8.318   8.122   0.202
24933SOL    HW286859   8.192   8.022   0.174
24934SOL     OW86860   8.805   7.815   1.559
24934SOL    HW186861   8.746   7.849   1.632
24934SOL    HW286862   8.749   7.780   1.484
24935SOL     OW86863   7.784   8.452   1.135
24935SOL    HW186864   7.748   8.396   1.209
24935SOL    HW286865   7.777   8.548   1.159
24936SOL     OW86866   9.016   8.461   0.226
24936SOL    HW186867   9.115   8.455   0.212
24936SOL    HW286868   8.969   8.437   0.141
24937SOL     OW86869   8.578   8.477   1.747
24937SOL    HW186870   8.548   8.382   1.751
24937SOL    HW286871   8.644   8.488   1.672
24938SOL     OW86872   8.574   9.167   1.611
24938SOL    HW186873   8.504   9.181   1.541
24938SOL    HW286874   8.603   9.255   1.648
24939SOL     OW86875   7.671   9.168   1.275
24939SOL    HW186876   7.643   9.116   1.195
24939SOL    HW286877   7.592   9.183   1.334
24940SOL     OW86878   8.364   8.635   0.864
24940SOL    HW186879   8.394   8.717   0.816
24940SOL    HW286880   8.439   8.601   0.922
24941SOL     OW86881   8.005   8.411   0.963
24941SOL    HW186882   8.003   8.316   0.932
24941SOL    HW286883   7.931   8.426   1.028
24942SOL     OW86884   7.418   8.357   1.170
24942SOL    HW186885   7.499   8.351   1.228
24942SOL    HW286886   7.375   8.267   1.163
24943SOL     OW86887   7.629   7.362   0.538
24943SOL    HW186888   7.686   7.429   0.490
24943SOL    HW286889   7.535   7.396   0.544
24944SOL     OW86890   7.450   8.434   0.212
24944SOL    HW186891   7.465   8.337   0.191
24944SOL    HW286892   7.512   8.490   0.157
24945SOL     OW86893   8.174   8.604   1.066
24945SOL    HW186894   8.119   8.528   1.031
24945SOL    HW286895   8.238   8.633   0.995
24946SOL     OW86896   8.484   8.135   0.193
24946SOL    HW186897   8.559   8.153   0.257
24946SOL    HW286898   8.521   8.121   0.101
24947SOL     OW86899   8.966   8.865   1.644
24947SOL    HW186900   8.926   8.791   1.697
24947SOL    HW286901   8.894   8.913   1.593
24948SOL     OW86902   7.630   8.318   1.338
24948SOL    HW186903   7.631   8.224   1.372
24948SOL    HW286904   7.621   8.381   1.415
24949SOL     OW86905   8.163   8.764   0.084
24949SOL    HW186906   8.124   8.851   0.114
24949SOL    HW286907   8.243   8.742   0.139
24950SOL     OW86908   8.009   9.113   1.082
24950SOL    HW186909   8.012   9.052   1.003
24950SOL    HW286910   7.966   9.067   1.159
24951SOL     OW86911   8.138   8.531   0.750
24951SOL    HW186912   8.219   8.576   0.787
24951SOL    HW286913   8.089   8.484   0.824
24952SOL     OW86914   8.326   8.892   0.521
24952SOL    HW186915   8.376   8.905   0.435
24952SOL    HW286916   8.263   8.815   0.511
24953SOL     OW86917   7.523   8.143   0.856
24953SOL    HW186918   7.603   8.169   0.803
24953SOL    HW286919   7.442   8.191   0.821
24954SOL     OW86920   7.439   8.313   1.816
24954SOL    HW186921   7.395   8.228   1.786
24954SOL    HW286922   7.473   8.303   1.909
24955SOL     OW86923   8.349   9.182   1.430
24955SOL    HW186924   8.311   9.122   1.499
24955SOL    HW286925   8.283   9.254   1.407
24956SOL     OW86926   8.568   8.592   1.046
24956SOL    HW186927   8.509   8.596   1.126
24956SOL    HW286928   8.653   8.544   1.069
24957SOL     OW86929   7.872   7.819   1.753
24957SOL    HW186930   7.918   7.792   1.669
24957SOL    HW286931   7.938   7.865   1.814
24958SOL     OW86932   7.899   8.286   0.403
24958SOL    HW186933   7.875   8.373   0.360
24958SOL    HW286934   7.816   8.236   0.426
24959SOL     OW86935   9.001   8.353   1.027
24959SOL    HW186936   9.024   8.418   0.955
24959SOL    HW286937   8.927   8.391   1.083
24960SOL     OW86938   8.739   7.666   1.328
24960SOL    HW186939   8.825   7.621   1.349
24960SOL    HW286940   8.664   7.600   1.336
24961SOL     OW86941   7.383   7.477   0.494
24961SOL    HW186942   7.284   7.476   0.481
24961SOL    HW286943   7.418   7.569   0.478
24962SOL     OW86944   8.658   7.503   1.805
24962SOL    HW186945   8.728   7.489   1.875
24962SOL    HW286946   8.606   7.586   1.826
24963SOL     OW86947   7.829   8.968   1.605
24963SOL    HW186948   7.773   9.024   1.666
24963SOL    HW286949   7.868   9.025   1.534
24964SOL     OW86950   9.199   8.865   1.501
24964SOL    HW186951   9.245   8.952   1.522
24964SOL    HW286952   9.117   8.856   1.557
24965SOL     OW86953   7.837   8.871   0.701
24965SOL    HW186954   7.841   8.771   0.699
24965SOL    HW286955   7.742   8.900   0.706
24966SOL     OW86956   8.427   8.994   1.211
24966SOL    HW186957   8.366   9.046   1.271
24966SOL    HW286958   8.383   8.979   1.123
24967SOL     OW86959   7.674   9.113   1.786
24967SOL    HW186960   7.700   9.210   1.785
24967SOL    HW286961   7.676   9.079   1.880
24968SOL     OW86962   7.515   8.695   1.658
24968SOL    HW186963   7.500   8.599   1.638
24968SOL    HW286964   7.439   8.749   1.621
24969SOL     OW86965   7.556   9.020   1.063
24969SOL    HW186966   7.535   8.925   1.084
24969SOL    HW286967   7.583   9.028   0.967
24970SOL     OW86968   8.456   8.552   0.472
24970SOL    HW186969   8.547   8.573   0.508
24970SOL    HW286970   8.415   8.479   0.527
24971SOL     OW86971   8.152   8.520   0.289
24971SOL    HW186972   8.232   8.576   0.268
24971SOL    HW286973   8.149   8.443   0.225
24972SOL     OW86974   7.943   7.872   0.848
24972SOL    HW186975   7.915   7.783   0.814
24972SOL    HW286976   8.018   7.907   0.793
24973SOL     OW86977   7.886   8.515   1.455
24973SOL    HW186978   7.960   8.549   1.397
24973SOL    HW286979   7.823   8.590   1.475
24974SOL     OW86980   9.172   8.500   1.331
24974SOL    HW186981   9.146   8.589   1.293
24974SOL    HW286982   9.218   8.447   1.260
24975SOL     OW86983   7.605   8.634   0.078
24975SOL    HW186984   7.517   8.673   0.053
24975SOL    HW286985   7.658   8.701   0.131
24976SOL     OW86986   8.054   8.990   0.196
24976SOL    HW186987   8.014   9.078   0.171
24976SOL    HW286988   8.019   8.962   0.286
24977SOL     OW86989   8.746   8.513   1.524
24977SOL    HW186990   8.703   8.449   1.460
24977SOL    HW286991   8.716   8.606   1.503
24978SOL     OW86992   7.922   9.109   1.378
24978SOL    HW186993   7.978   9.192   1.381
24978SOL    HW286994   7.832   9.130   1.341
24979SOL     OW86995   7.658   8.001   1.713
24979SOL    HW186996   7.724   7.929   1.734
24979SOL    HW286997   7.685   8.086   1.760
24980SOL     OW86998   9.051   8.918   1.027
24980SOL    HW186999   9.100   9.000   1.059
24980SOL    HW287000   9.056   8.848   1.098
24981SOL     OW87001   7.371   8.317   0.672
24981SOL    HW187002   7.412   8.385   0.611
24981SOL    HW287003   7.273   8.332   0.677
24982SOL     OW87004   7.847   8.259   1.556
24982SOL    HW187005   7.797   8.197   1.496
24982SOL    HW287006   7.870   8.343   1.506
24983SOL     OW87007   9.022   8.556   0.838
24983SOL    HW187008   8.993   8.649   0.813
24983SOL    HW287009   8.987   8.491   0.771
24984SOL     OW87010   8.016   8.689   1.270
24984SOL    HW187011   7.923   8.704   1.237
24984SOL    HW287012   8.075   8.664   1.193
24985SOL     OW87013   7.622   8.091   1.105
24985SOL    HW187014   7.653   8.175   1.149
24985SOL    HW287015   7.581   8.114   1.016
24986SOL     OW87016   7.728   8.740   1.494
24986SOL    HW187017   7.774   8.823   1.525
24986SOL    HW287018   7.650   8.720   1.553
24987SOL     OW87019   9.039   9.105   1.764
24987SOL    HW187020   9.015   9.011   1.737
24987SOL    HW287021   9.036   9.164   1.683
24988SOL     OW87022   8.718   8.618   0.521
24988SOL    HW187023   8.813   8.624   0.553
24988SOL    HW287024   8.715   8.628   0.422
24989SOL     OW87025   8.648   8.342   1.335
24989SOL    HW187026   8.710   8.264   1.339
24989SOL    HW287027   8.566   8.318   1.283
24990SOL     OW87028   7.978   8.156   0.866
24990SOL    HW187029   7.939   8.072   0.904
24990SOL    HW287030   8.053   8.134   0.804
24991SOL     OW87031   8.700   8.835   1.027
24991SOL    HW187032   8.638   8.757   1.028
24991SOL    HW287033   8.710   8.868   0.933
24992SOL     OW87034   8.455   8.804   2.605
24992SOL    HW187035   8.545   8.844   2.623
24992SOL    HW287036   8.430   8.821   2.509
24993SOL     OW87037   9.014   8.039   3.240
24993SOL    HW187038   8.946   7.989   3.294
24993SOL    HW287039   9.068   8.097   3.300
24994SOL     OW87040   7.731   7.614   1.870
24994SOL    HW187041   7.645   7.616   1.819
24994SOL    HW287042   7.793   7.683   1.833
24995SOL     OW87043   8.701   8.920   2.669
24995SOL    HW187044   8.712   9.018   2.687
24995SOL    HW287045   8.791   8.879   2.654
24996SOL     OW87046   8.569   7.452   3.195
24996SOL    HW187047   8.498   7.397   3.238
24996SOL    HW287048   8.611   7.399   3.121
24997SOL     OW87049   8.373   8.271   3.598
24997SOL    HW187050   8.350   8.216   3.518
24997SOL    HW287051   8.301   8.339   3.613
24998SOL     OW87052   7.945   8.888   2.267
24998SOL    HW187053   7.879   8.862   2.337
24998SOL    HW287054   8.023   8.933   2.310
24999SOL     OW87055   7.903   7.413   1.984
24999SOL    HW187056   7.998   7.434   1.963
24999SOL    HW287057   7.845   7.488   1.952
25000SOL     OW87058   8.987   8.447   3.405
25000SOL    HW187059   8.892   8.465   3.379
25000SOL    HW287060   9.048   8.480   3.333
25001SOL     OW87061   8.835   8.434   3.076
25001SOL    HW187062   8.795   8.447   3.166
25001SOL    HW287063   8.880   8.519   3.047
25002SOL     OW87064   8.380   8.790   3.258
25002SOL    HW187065   8.291   8.833   3.267
25002SOL    HW287066   8.370   8.699   3.218
25003SOL     OW87067   7.840   8.583   2.545
25003SOL    HW187068   7.786   8.538   2.616
25003SOL    HW287069   7.937   8.563   2.560
25004SOL     OW87070   8.075   8.062   2.403
25004SOL    HW187071   8.022   8.123   2.344
25004SOL    HW287072   8.078   7.971   2.362
25005SOL     OW87073   8.671   7.930   3.602
25005SOL    HW187074   8.765   7.911   3.630
25005SOL    HW287075   8.615   7.848   3.612
25006SOL     OW87076   7.837   8.739   2.042
25006SOL    HW187077   7.879   8.764   1.955
25006SOL    HW287078   7.879   8.793   2.115
25007SOL     OW87079   8.010   7.806   2.749
25007SOL    HW187080   8.100   7.841   2.773
25007SOL    HW287081   8.016   7.707   2.732
25008SOL     OW87082   7.645   8.147   2.360
25008SOL    HW187083   7.670   8.165   2.456
25008SOL    HW287084   7.546   8.155   2.350
25009SOL     OW87085   8.154   9.015   2.394
25009SOL    HW187086   8.240   8.966   2.381
25009SOL    HW287087   8.158   9.101   2.343
25010SOL     OW87088   9.118   9.016   2.237
25010SOL    HW187089   9.217   9.008   2.227
25010SOL    HW287090   9.079   9.055   2.153
25011SOL     OW87091   9.066   7.684   2.968
25011SOL    HW187092   9.099   7.777   2.984
25011SOL    HW287093   8.966   7.684   2.967
25012SOL     OW87094   8.472   7.723   2.233
25012SOL    HW187095   8.450   7.797   2.297
25012SOL    HW287096   8.497   7.641   2.284
25013SOL     OW87097   7.583   8.381   3.458
25013SOL    HW187098   7.665   8.439   3.458
25013SOL    HW287099   7.583   8.324   3.540
25014SOL     OW87100   8.011   9.010   2.623
25014SOL    HW187101   8.069   9.026   2.543
25014SOL    HW287102   7.942   8.941   2.600
25015SOL     OW87103   8.368   8.058   3.403
25015SOL    HW187104   8.396   7.994   3.475
25015SOL    HW287105   8.448   8.081   3.347
25016SOL     OW87106   8.964   8.827   2.671
25016SOL    HW187107   8.984   8.866   2.761
25016SOL    HW287108   9.022   8.870   2.603
25017SOL     OW87109   7.685   8.628   2.321
25017SOL    HW187110   7.742   8.610   2.401
25017SOL    HW287111   7.714   8.569   2.245
25018SOL     OW87112   8.614   7.724   1.992
25018SOL    HW187113   8.693   7.666   2.014
25018SOL    HW287114   8.558   7.736   2.073
25019SOL     OW87115   8.811   8.165   3.110
25019SOL    HW187116   8.823   8.263   3.098
25019SOL    HW287117   8.890   8.127   3.158
25020SOL     OW87118   7.850   7.678   2.295
25020SOL    HW187119   7.825   7.598   2.349
25020SOL    HW287120   7.774   7.703   2.235
25021SOL     OW87121   8.935   9.138   3.177
25021SOL    HW187122   8.856   9.143   3.115
25021SOL    HW287123   9.019   9.135   3.123
25022SOL     OW87124   9.132   7.945   3.016
25022SOL    HW187125   9.226   7.980   3.020
25022SOL    HW287126   9.083   7.974   3.098
25023SOL     OW87127   9.181   9.136   3.040
25023SOL    HW187128   9.217   9.173   3.126
25023SOL    HW287129   9.257   9.111   2.980
25024SOL     OW87130   8.400   7.894   2.437
25024SOL    HW187131   8.450   7.936   2.513
25024SOL    HW287132   8.308   7.934   2.430
25025SOL     OW87133   8.509   7.713   3.640
25025SOL    HW187134   8.506   7.656   3.723
25025SOL    HW287135   8.430   7.775   3.640
25026SOL     OW87136   8.397   9.139   1.981
25026SOL    HW187137   8.434   9.089   1.903
25026SOL    HW287138   8.417   9.090   2.066
25027SOL     OW87139   8.128   7.410   3.635
25027SOL    HW187140   8.151   7.321   3.597
25027SOL    HW287141   8.176   7.422   3.722
25028SOL     OW87142   9.003   8.009   2.781
25028SOL    HW187143   8.998   8.109   2.781
25028SOL    HW287144   9.046   7.979   2.866
25029SOL     OW87145   8.493   8.729   3.560
25029SOL    HW187146   8.532   8.637   3.555
25029SOL    HW287147   8.452   8.753   3.473
25030SOL     OW87148   8.206   8.491   3.619
25030SOL    HW187149   8.245   8.560   3.680
25030SOL    HW287150   8.110   8.476   3.643
25031SOL     OW87151   8.785   7.349   2.732
25031SOL    HW187152   8.747   7.442   2.728
25031SOL    HW287153   8.874   7.347   2.688
25032SOL     OW87154   9.101   7.592   3.641
25032SOL    HW187155   9.062   7.624   3.727
25032SOL    HW287156   9.091   7.493   3.634
25033SOL     OW87157   7.266   8.047   2.474
25033SOL    HW187158   7.216   7.990   2.539
25033SOL    HW287159   7.292   8.133   2.519
25034SOL     OW87160   8.428   8.290   2.739
25034SOL    HW187161   8.415   8.389   2.729
25034SOL    HW287162   8.354   8.243   2.690
25035SOL     OW87163   7.589   8.897   2.239
25035SOL    HW187164   7.618   8.801   2.245
25035SOL    HW287165   7.642   8.943   2.169
25036SOL     OW87166   8.860   8.723   3.088
25036SOL    HW187167   8.816   8.760   3.006
25036SOL    HW287168   8.796   8.729   3.165
25037SOL     OW87169   7.573   8.978   2.502
25037SOL    HW187170   7.477   8.993   2.527
25037SOL    HW287171   7.579   8.957   2.405
25038SOL     OW87172   9.121   8.782   3.129
25038SOL    HW187173   9.143   8.817   3.220
25038SOL    HW287174   9.024   8.759   3.124
25039SOL     OW87175   7.749   8.240   1.810
25039SOL    HW187176   7.801   8.246   1.724
25039SOL    HW287177   7.714   8.331   1.834
25040SOL     OW87178   8.345   8.541   3.147
25040SOL    HW187179   8.405   8.466   3.118
25040SOL    HW287180   8.275   8.555   3.077
25041SOL     OW87181   7.529   8.246   2.066
25041SOL    HW187182   7.608   8.186   2.057
25041SOL    HW287183   7.462   8.203   2.127
25042SOL     OW87184   8.316   9.128   2.923
25042SOL    HW187185   8.303   9.052   2.859
25042SOL    HW287186   8.227   9.169   2.945
25043SOL     OW87187   7.689   8.020   3.317
25043SOL    HW187188   7.688   7.933   3.267
25043SOL    HW287189   7.656   8.005   3.410
25044SOL     OW87190   8.431   8.295   3.031
25044SOL    HW187191   8.436   8.286   2.932
25044SOL    HW287192   8.348   8.251   3.065
25045SOL     OW87193   8.966   7.729   2.332
25045SOL    HW187194   9.063   7.705   2.324
25045SOL    HW287195   8.948   7.762   2.425
25046SOL     OW87196   8.259   8.928   2.754
25046SOL    HW187197   8.327   8.880   2.699
25046SOL    HW287198   8.173   8.935   2.703
25047SOL     OW87199   8.227   7.665   2.114
25047SOL    HW187200   8.165   7.719   2.171
25047SOL    HW287201   8.321   7.690   2.135
25048SOL     OW87202   9.122   8.986   2.511
25048SOL    HW187203   9.085   9.069   2.553
25048SOL    HW287204   9.112   8.993   2.411
25049SOL     OW87205   8.211   9.029   3.478
25049SOL    HW187206   8.171   8.971   3.406
25049SOL    HW287207   8.206   8.981   3.566
25050SOL     OW87208   8.736   8.425   2.722
25050SOL    HW187209   8.685   8.348   2.682
25050SOL    HW287210   8.679   8.469   2.792
25051SOL     OW87211   7.690   8.468   2.741
25051SOL    HW187212   7.597   8.504   2.735
25051SOL    HW287213   7.714   8.453   2.837
25052SOL     OW87214   8.658   8.757   3.274
25052SOL    HW187215   8.702   8.841   3.307
25052SOL    HW287216   8.560   8.772   3.266
25053SOL     OW87217   9.023   9.174   2.028
25053SOL    HW187218   9.104   9.227   2.052
25053SOL    HW287219   9.029   9.146   1.932
25054SOL     OW87220   8.232   8.189   3.199
25054SOL    HW187221   8.214   8.271   3.253
25054SOL    HW287222   8.280   8.122   3.256
25055SOL     OW87223   7.466   9.229   3.252
25055SOL    HW187224   7.416   9.316   3.249
25055SOL    HW287225   7.448   9.184   3.339
25056SOL     OW87226   7.709   9.117   2.073
25056SOL    HW187227   7.799   9.144   2.039
25056SOL    HW287228   7.695   9.157   2.164
25057SOL     OW87229   8.711   9.137   3.017
25057SOL    HW187230   8.734   9.143   2.920
25057SOL    HW287231   8.640   9.068   3.030
25058SOL     OW87232   7.429   8.572   2.798
25058SOL    HW187233   7.343   8.572   2.746
25058SOL    HW287234   7.422   8.509   2.875
25059SOL     OW87235   8.257   7.462   2.310
25059SOL    HW187236   8.239   7.507   2.223
25059SOL    HW287237   8.236   7.525   2.385
25060SOL     OW87238   7.410   8.550   2.366
25060SOL    HW187239   7.500   8.590   2.385
25060SOL    HW287240   7.401   8.531   2.268
25061SOL     OW87241   8.964   7.673   3.410
25061SOL    HW187242   8.923   7.765   3.408
25061SOL    HW287243   9.011   7.660   3.497
25062SOL     OW87244   8.725   7.623   2.729
25062SOL    HW187245   8.782   7.678   2.667
25062SOL    HW287246   8.743   7.650   2.824
25063SOL     OW87247   8.832   7.500   2.022
25063SOL    HW187248   8.900   7.426   2.017
25063SOL    HW287249   8.796   7.505   2.115
25064SOL     OW87250   8.971   7.390   3.416
25064SOL    HW187251   8.956   7.352   3.325
25064SOL    HW287252   8.949   7.487   3.417
25065SOL     OW87253   8.214   7.634   2.516
25065SOL    HW187254   8.148   7.600   2.583
25065SOL    HW287255   8.304   7.642   2.560
25066SOL     OW87256   8.749   7.985   2.920
25066SOL    HW187257   8.815   7.999   2.846
25066SOL    HW287258   8.763   8.054   2.991
25067SOL     OW87259   8.987   7.394   2.317
25067SOL    HW187260   9.009   7.351   2.229
25067SOL    HW287261   8.904   7.448   2.308
25068SOL     OW87262   7.908   8.852   3.678
25068SOL    HW187263   7.876   8.901   3.597
25068SOL    HW287264   8.007   8.859   3.685
25069SOL     OW87265   7.808   8.531   3.449
25069SOL    HW187266   7.867   8.491   3.379
25069SOL    HW287267   7.786   8.625   3.425
25070SOL     OW87268   7.497   8.780   2.972
25070SOL    HW187269   7.480   8.714   2.899
25070SOL    HW287270   7.419   8.783   3.034
25071SOL     OW87271   8.509   8.021   2.658
25071SOL    HW187272   8.501   8.118   2.681
25071SOL    HW287273   8.500   7.966   2.741
25072SOL     OW87274   9.143   8.008   3.576
25072SOL    HW187275   9.136   8.087   3.515
25072SOL    HW287276   9.238   7.981   3.584
25073SOL     OW87277   8.792   7.722   2.977
25073SOL    HW187278   8.775   7.819   2.961
25073SOL    HW287279   8.766   7.699   3.071
25074SOL     OW87280   8.925   7.867   3.667
25074SOL    HW187281   9.006   7.916   3.635
25074SOL    HW287282   8.950   7.806   3.742
25075SOL     OW87283   9.147   8.221   3.395
25075SOL    HW187284   9.084   8.298   3.393
25075SOL    HW287285   9.241   8.255   3.400
25076SOL     OW87286   8.990   7.726   2.035
25076SOL    HW187287   8.989   7.754   2.131
25076SOL    HW287288   8.930   7.647   2.023
25077SOL     OW87289   8.110   8.893   3.258
25077SOL    HW187290   8.047   8.968   3.242
25077SOL    HW287291   8.075   8.810   3.214
25078SOL     OW87292   7.431   9.094   3.492
25078SOL    HW187293   7.516   9.113   3.542
25078SOL    HW287294   7.354   9.100   3.556
25079SOL     OW87295   8.786   8.981   3.353
25079SOL    HW187296   8.718   9.043   3.393
25079SOL    HW287297   8.845   9.032   3.290
25080SOL     OW87298   7.716   8.032   2.119
25080SOL    HW187299   7.808   8.068   2.103
25080SOL    HW287300   7.687   8.054   2.211
25081SOL     OW87301   9.150   7.592   3.219
25081SOL    HW187302   9.080   7.626   3.282
25081SOL    HW287303   9.123   7.613   3.125
25082SOL     OW87304   7.767   9.169   2.564
25082SOL    HW187305   7.698   9.100   2.545
25082SOL    HW287306   7.856   9.125   2.578
25083SOL     OW87307   7.735   8.707   3.099
25083SOL    HW187308   7.728   8.735   3.195
25083SOL    HW287309   7.655   8.740   3.049
25084SOL     OW87310   8.559   8.977   3.674
25084SOL    HW187311   8.537   8.885   3.643
25084SOL    HW287312   8.575   9.036   3.595
25085SOL     OW87313   7.717   8.213   2.616
25085SOL    HW187314   7.736   8.302   2.656
25085SOL    HW287315   7.795   8.152   2.632
25086SOL     OW87316   7.661   7.755   2.111
25086SOL    HW187317   7.681   7.708   2.025
25086SOL    HW287318   7.677   7.853   2.100
25087SOL     OW87319   7.823   8.475   2.116
25087SOL    HW187320   7.829   8.418   2.035
25087SOL    HW287321   7.836   8.571   2.091
25088SOL     OW87322   8.561   8.194   1.749
25088SOL    HW187323   8.547   8.097   1.769
25088SOL    HW287324   8.656   8.209   1.722
25089SOL     OW87325   8.764   7.542   2.278
25089SOL    HW187326   8.678   7.530   2.328
25089SOL    HW287327   8.810   7.625   2.309
25090SOL     OW87328   8.809   7.905   3.359
25090SOL    HW187329   8.754   7.935   3.437
25090SOL    HW287330   8.757   7.839   3.305
25091SOL     OW87331   7.706   8.446   3.015
25091SOL    HW187332   7.711   8.380   3.090
25091SOL    HW287333   7.728   8.537   3.051
25092SOL     OW87334   8.072   8.112   2.996
25092SOL    HW187335   8.125   8.139   3.077
25092SOL    HW287336   7.983   8.075   3.025
25093SOL     OW87337   8.215   8.414   3.355
25093SOL    HW187338   8.272   8.472   3.298
25093SOL    HW287339   8.215   8.449   3.449
25094SOL     OW87340   8.566   8.461   3.542
25094SOL    HW187341   8.491   8.397   3.560
25094SOL    HW287342   8.651   8.423   3.578
25095SOL     OW87343   8.520   7.504   2.393
25095SOL    HW187344   8.505   7.529   2.489
25095SOL    HW287345   8.439   7.459   2.358
25096SOL     OW87346   8.597   9.143   3.462
25096SOL    HW187347   8.518   9.173   3.408
25096SOL    HW287348   8.640   9.223   3.504
25097SOL     OW87349   8.029   7.531   2.691
25097SOL    HW187350   7.979   7.481   2.620
25097SOL    HW287351   8.036   7.474   2.773
25098SOL     OW87352   7.695   9.206   3.097
25098SOL    HW187353   7.664   9.148   3.021
25098SOL    HW287354   7.620   9.217   3.163
25099SOL     OW87355   8.383   8.577   2.744
25099SOL    HW187356   8.405   8.656   2.687
25099SOL    HW287357   8.454   8.564   2.813
25100SOL     OW87358   8.095   8.312   2.805
25100SOL    HW187359   8.133   8.261   2.728
25100SOL    HW287360   8.068   8.249   2.878
25101SOL     OW87361   7.431   8.413   3.020
25101SOL    HW187362   7.530   8.427   3.020
25101SOL    HW287363   7.411   8.316   3.010
25102SOL     OW87364   8.106   8.039   3.506
25102SOL    HW187365   8.039   8.093   3.454
25102SOL    HW287366   8.195   8.046   3.461
25103SOL     OW87367   7.443   8.506   2.096
25103SOL    HW187368   7.491   8.419   2.089
25103SOL    HW287369   7.490   8.575   2.041
25104SOL     OW87370   9.125   7.605   2.707
25104SOL    HW187371   9.116   7.618   2.805
25104SOL    HW287372   9.221   7.617   2.681
25105SOL     OW87373   8.173   8.549   2.931
25105SOL    HW187374   8.133   8.463   2.897
25105SOL    HW287375   8.239   8.583   2.865
25106SOL     OW87376   8.940   8.849   3.536
25106SOL    HW187377   8.899   8.765   3.573
25106SOL    HW287378   8.876   8.892   3.472
25107SOL     OW87379   7.642   8.262   3.211
25107SOL    HW187380   7.658   8.169   3.242
25107SOL    HW287381   7.611   8.319   3.287
25108SOL     OW87382   8.189   8.852   1.821
25108SOL    HW187383   8.166   8.894   1.909
25108SOL    HW287384   8.276   8.804   1.829
25109SOL     OW87385   8.033   9.163   2.852
25109SOL    HW187386   8.027   9.103   2.772
25109SOL    HW287387   7.957   9.144   2.913
25110SOL     OW87388   8.098   8.524   2.624
25110SOL    HW187389   8.193   8.554   2.631
25110SOL    HW287390   8.082   8.448   2.686
25111SOL     OW87391   8.371   8.847   2.347
25111SOL    HW187392   8.434   8.885   2.280
25111SOL    HW287393   8.327   8.766   2.310
25112SOL     OW87394   7.479   8.220   2.748
25112SOL    HW187395   7.568   8.205   2.705
25112SOL    HW287396   7.417   8.262   2.683
25113SOL     OW87397   7.532   8.219   3.679
25113SOL    HW187398   7.440   8.224   3.639
25113SOL    HW287399   7.534   8.268   3.766
25114SOL     OW87400   8.361   9.199   3.316
25114SOL    HW187401   8.318   9.131   3.376
25114SOL    HW287402   8.290   9.255   3.274
25115SOL     OW87403   8.591   8.546   2.919
25115SOL    HW187404   8.619   8.642   2.925
25115SOL    HW287405   8.633   8.495   2.993
25116SOL     OW87406   7.881   7.881   3.574
25116SOL    HW187407   7.916   7.788   3.576
25116SOL    HW287408   7.957   7.945   3.560
25117SOL     OW87409   7.895   8.228   2.258
25117SOL    HW187410   7.891   8.322   2.225
25117SOL    HW287411   7.808   8.205   2.304
25118SOL     OW87412   8.997   8.283   2.835
25118SOL    HW187413   9.002   8.361   2.772
25118SOL    HW287414   8.942   8.308   2.914
25119SOL     OW87415   8.727   7.667   3.238
25119SOL    HW187416   8.796   7.639   3.305
25119SOL    HW287417   8.660   7.593   3.227
25120SOL     OW87418   8.698   7.510   3.586
25120SOL    HW187419   8.737   7.494   3.676
25120SOL    HW287420   8.634   7.586   3.590
25121SOL     OW87421   7.821   9.005   3.463
25121SOL    HW187422   7.765   9.069   3.516
25121SOL    HW287423   7.865   9.053   3.387
25122SOL     OW87424   9.172   8.852   3.392
25122SOL    HW187425   9.222   8.934   3.416
25122SOL    HW287426   9.087   8.847   3.445
25123SOL     OW87427   8.485   7.907   2.913
25123SOL    HW187428   8.578   7.944   2.921
25123SOL    HW287429   8.481   7.818   2.960
25124SOL     OW87430   7.817   8.851   2.524
25124SOL    HW187431   7.822   8.752   2.536
25124SOL    HW287432   7.721   8.879   2.524
25125SOL     OW87433   8.495   8.971   3.060
25125SOL    HW187434   8.452   8.919   3.135
25125SOL    HW287435   8.427   9.031   3.018
25126SOL     OW87436   7.661   9.160   3.630
25126SOL    HW187437   7.689   9.256   3.633
25126SOL    HW287438   7.663   9.121   3.722
25127SOL     OW87439   7.505   8.669   3.505
25127SOL    HW187440   7.492   8.574   3.475
25127SOL    HW287441   7.431   8.725   3.469
25128SOL     OW87442   7.575   9.037   2.903
25128SOL    HW187443   7.555   8.942   2.927
25128SOL    HW287444   7.591   9.044   2.804
25129SOL     OW87445   8.460   7.576   2.650
25129SOL    HW187446   8.551   7.602   2.684
25129SOL    HW287447   8.416   7.516   2.716
25130SOL     OW87448   8.935   7.779   2.611
25130SOL    HW187449   8.945   7.866   2.660
25130SOL    HW287450   9.005   7.715   2.643
25131SOL     OW87451   8.168   7.465   1.927
25131SOL    HW187452   8.234   7.392   1.947
25131SOL    HW287453   8.190   7.546   1.982
25132SOL     OW87454   7.922   8.039   2.637
25132SOL    HW187455   7.940   7.952   2.683
25132SOL    HW287456   7.975   8.044   2.552
25133SOL     OW87457   7.966   8.436   3.253
25133SOL    HW187458   8.055   8.417   3.295
25133SOL    HW287459   7.973   8.517   3.196
25134SOL     OW87460   9.151   8.516   3.202
25134SOL    HW187461   9.155   8.612   3.175
25134SOL    HW287462   9.189   8.459   3.129
25135SOL     OW87463   7.580   8.678   1.938
25135SOL    HW187464   7.569   8.694   1.840
25135SOL    HW287465   7.671   8.707   1.966
25136SOL     OW87466   8.065   8.979   2.032
25136SOL    HW187467   8.021   9.063   2.000
25136SOL    HW287468   8.023   8.950   2.118
25137SOL     OW87469   8.727   8.499   3.317
25137SOL    HW187470   8.668   8.459   3.387
25137SOL    HW287471   8.704   8.595   3.303
25138SOL     OW87472   7.931   9.122   3.232
25138SOL    HW187473   7.997   9.197   3.228
25138SOL    HW287474   7.848   9.147   3.183
25139SOL     OW87475   7.611   7.973   3.574
25139SOL    HW187476   7.702   7.936   3.593
25139SOL    HW287477   7.598   8.057   3.627
25140SOL     OW87478   9.032   8.937   2.909
25140SOL    HW187479   9.069   9.028   2.928
25140SOL    HW287480   9.056   8.874   2.983
25141SOL     OW87481   7.338   8.322   2.532
25141SOL    HW187482   7.382   8.395   2.479
25141SOL    HW287483   7.239   8.339   2.535
25142SOL     OW87484   7.928   8.166   3.344
25142SOL    HW187485   7.841   8.118   3.335
25142SOL    HW287486   7.921   8.257   3.304
25143SOL     OW87487   8.978   8.554   2.715
25143SOL    HW187488   8.968   8.651   2.693
25143SOL    HW287489   8.888   8.510   2.709
25144SOL     OW87490   8.228   7.961   2.822
25144SOL    HW187491   8.319   7.944   2.860
25144SOL    HW287492   8.174   8.013   2.888
25145SOL     OW87493   8.009   8.675   3.116
25145SOL    HW187494   7.915   8.694   3.090
25145SOL    HW287495   8.060   8.641   3.037
25146SOL     OW87496   7.470   8.137   3.007
25146SOL    HW187497   7.548   8.171   3.058
25146SOL    HW287498   7.482   8.156   2.910
25147SOL     OW87499   7.716   8.775   3.363
25147SOL    HW187500   7.755   8.860   3.398
25147SOL    HW287501   7.635   8.750   3.418
25148SOL     OW87502   9.037   9.086   3.647
25148SOL    HW187503   9.002   8.995   3.627
25148SOL    HW287504   9.012   9.148   3.572
25149SOL     OW87505   8.091   7.796   2.325
25149SOL    HW187506   7.999   7.758   2.314
25149SOL    HW287507   8.139   7.746   2.397
25150SOL     OW87508   9.021   7.376   2.588
25150SOL    HW187509   9.008   7.391   2.490
25150SOL    HW287510   9.061   7.458   2.629
25151SOL     OW87511   8.558   8.142   3.227
25151SOL    HW187512   8.656   8.134   3.208
25151SOL    HW287513   8.515   8.201   3.158
25152SOL     OW87514   8.221   8.153   2.621
25152SOL    HW187515   8.225   8.072   2.679
25152SOL    HW287516   8.175   8.131   2.535
25153SOL     OW87517   8.660   8.807   2.915
25153SOL    HW187518   8.597   8.865   2.967
25153SOL    HW287519   8.673   8.847   2.824
25154SOL     OW87520   8.475   8.820   4.429
25154SOL    HW187521   8.567   8.856   4.445
25154SOL    HW287522   8.449   8.837   4.334
25155SOL     OW87523   8.975   8.667   4.258
25155SOL    HW187524   8.984   8.729   4.336
25155SOL    HW287525   9.066   8.636   4.231
25156SOL     OW87526   9.003   8.034   5.063
25156SOL    HW187527   8.940   7.982   5.120
25156SOL    HW287528   9.055   8.097   5.120
25157SOL     OW87529   8.723   8.922   4.499
25157SOL    HW187530   8.731   9.019   4.524
25157SOL    HW287531   8.814   8.885   4.479
25158SOL     OW87532   8.556   7.469   5.014
25158SOL    HW187533   8.482   7.416   5.055
25158SOL    HW287534   8.605   7.413   4.947
25159SOL     OW87535   8.345   8.282   5.444
25159SOL    HW187536   8.305   8.291   5.353
25159SOL    HW287537   8.273   8.293   5.513
25160SOL     OW87538   7.960   8.886   4.127
25160SOL    HW187539   7.894   8.875   4.201
25160SOL    HW287540   8.049   8.909   4.165
25161SOL     OW87541   8.987   8.447   5.229
25161SOL    HW187542   8.890   8.469   5.214
25161SOL    HW287543   9.041   8.479   5.152
25162SOL     OW87544   8.823   8.429   4.931
25162SOL    HW187545   8.780   8.438   5.021
25162SOL    HW287546   8.856   8.519   4.901
25163SOL     OW87547   8.371   8.742   5.170
25163SOL    HW187548   8.286   8.794   5.161
25163SOL    HW287549   8.364   8.657   5.118
25164SOL     OW87550   7.875   8.616   4.459
25164SOL    HW187551   7.812   8.555   4.507
25164SOL    HW287552   7.970   8.591   4.481
25165SOL     OW87553   8.661   7.936   5.439
25165SOL    HW187554   8.749   7.905   5.472
25165SOL    HW287555   8.596   7.860   5.438
25166SOL     OW87556   7.814   8.758   3.916
25166SOL    HW187557   7.848   8.790   3.828
25166SOL    HW287558   7.872   8.793   3.989
25167SOL     OW87559   7.955   7.675   4.708
25167SOL    HW187560   8.019   7.748   4.731
25167SOL    HW287561   8.001   7.606   4.652
25168SOL     OW87562   7.616   8.371   4.163
25168SOL    HW187563   7.682   8.307   4.201
25168SOL    HW287564   7.531   8.367   4.217
25169SOL     OW87565   8.180   9.001   4.269
25169SOL    HW187566   8.260   8.948   4.238
25169SOL    HW287567   8.179   9.090   4.223
25170SOL     OW87568   9.129   9.012   4.078
25170SOL    HW187569   9.224   8.988   4.059
25170SOL    HW287570   9.093   9.070   4.004
25171SOL     OW87571   9.049   7.695   4.809
25171SOL    HW187572   9.089   7.786   4.820
25171SOL    HW287573   8.949   7.701   4.815
25172SOL     OW87574   8.496   7.768   4.029
25172SOL    HW187575   8.526   7.863   4.034
25172SOL    HW287576   8.496   7.729   4.121
25173SOL     OW87577   7.540   8.373   5.297
25173SOL    HW187578   7.632   8.409   5.315
25173SOL    HW287579   7.498   8.345   5.383
25174SOL     OW87580   8.025   9.004   4.491
25174SOL    HW187581   8.090   9.007   4.415
25174SOL    HW287582   7.945   8.950   4.464
25175SOL     OW87583   8.356   7.992   5.245
25175SOL    HW187584   8.397   7.921   5.303
25175SOL    HW287585   8.427   8.042   5.196
25176SOL     OW87586   8.989   8.829   4.493
25176SOL    HW187587   8.989   8.862   4.588
25176SOL    HW287588   9.051   8.885   4.439
25177SOL     OW87589   7.621   8.647   4.083
25177SOL    HW187590   7.640   8.558   4.124
25177SOL    HW287591   7.696   8.672   4.021
25178SOL     OW87592   8.536   7.561   3.866
25178SOL    HW187593   8.626   7.522   3.886
25178SOL    HW287594   8.519   7.637   3.929
25179SOL     OW87595   7.797   7.937   4.854
25179SOL    HW187596   7.791   7.842   4.886
25179SOL    HW287597   7.709   7.982   4.866
25180SOL     OW87598   8.784   8.158   4.957
25180SOL    HW187599   8.798   8.257   4.945
25180SOL    HW287600   8.867   8.116   4.992
25181SOL     OW87601   8.910   9.136   5.013
25181SOL    HW187602   8.832   9.134   4.950
25181SOL    HW287603   8.995   9.133   4.960
25182SOL     OW87604   9.139   7.947   4.846
25182SOL    HW187605   9.229   7.991   4.844
25182SOL    HW287606   9.090   7.978   4.928
25183SOL     OW87607   9.151   9.134   4.860
25183SOL    HW187608   9.194   9.168   4.944
25183SOL    HW287609   9.222   9.121   4.790
25184SOL     OW87610   8.298   7.840   4.321
25184SOL    HW187611   8.348   7.876   4.400
25184SOL    HW287612   8.258   7.916   4.270
25185SOL     OW87613   8.632   8.366   3.867
25185SOL    HW187614   8.630   8.340   3.964
25185SOL    HW287615   8.605   8.288   3.811
25186SOL     OW87616   8.442   7.758   5.428
25186SOL    HW187617   8.482   7.718   5.511
25186SOL    HW287618   8.345   7.733   5.422
25187SOL     OW87619   9.107   8.087   4.077
25187SOL    HW187620   9.070   7.995   4.089
25187SOL    HW287621   9.172   8.106   4.151
25188SOL     OW87622   8.386   9.164   3.813
25188SOL    HW187623   8.425   9.101   3.745
25188SOL    HW287624   8.420   9.140   3.904
25189SOL     OW87625   8.155   7.432   5.420
25189SOL    HW187626   8.176   7.338   5.393
25189SOL    HW287627   8.165   7.441   5.520
25190SOL     OW87628   9.073   8.060   4.608
25190SOL    HW187629   9.038   8.152   4.622
25190SOL    HW287630   9.087   8.015   4.696
25191SOL     OW87631   8.485   8.708   5.430
25191SOL    HW187632   8.529   8.618   5.425
25191SOL    HW287633   8.434   8.726   5.346
25192SOL     OW87634   8.104   8.536   5.418
25192SOL    HW187635   8.052   8.621   5.426
25192SOL    HW287636   8.115   8.494   5.508
25193SOL     OW87637   8.787   7.354   4.580
25193SOL    HW187638   8.744   7.444   4.586
25193SOL    HW287639   8.873   7.362   4.530
25194SOL     OW87640   9.128   7.606   5.494
25194SOL    HW187641   9.086   7.648   5.574
25194SOL    HW287642   9.136   7.507   5.508
25195SOL     OW87643   7.422   8.092   4.255
25195SOL    HW187644   7.452   8.041   4.336
25195SOL    HW287645   7.417   8.190   4.277
25196SOL     OW87646   7.770   7.635   4.503
25196SOL    HW187647   7.829   7.650   4.582
25196SOL    HW287648   7.801   7.554   4.453
25197SOL     OW87649   7.771   7.641   4.916
25197SOL    HW187650   7.749   7.545   4.929
25197SOL    HW287651   7.839   7.651   4.843
25198SOL     OW87652   8.387   8.195   4.594
25198SOL    HW187653   8.423   8.251   4.519
25198SOL    HW287654   8.405   8.099   4.576
25199SOL     OW87655   7.559   8.919   4.069
25199SOL    HW187656   7.581   8.822   4.073
25199SOL    HW287657   7.619   8.964   4.002
25200SOL     OW87658   8.835   8.715   4.925
25200SOL    HW187659   8.789   8.738   4.839
25200SOL    HW287660   8.772   8.730   5.001
25201SOL     OW87661   7.563   8.974   4.343
25201SOL    HW187662   7.467   8.986   4.369
25201SOL    HW287663   7.569   8.967   4.243
25202SOL     OW87664   9.095   8.785   4.962
25202SOL    HW187665   9.120   8.816   5.054
25202SOL    HW287666   8.999   8.756   4.962
25203SOL     OW87667   7.941   8.455   3.676
25203SOL    HW187668   7.890   8.486   3.597
25203SOL    HW287669   7.879   8.438   3.752
25204SOL     OW87670   8.341   8.510   5.017
25204SOL    HW187671   8.390   8.430   4.982
25204SOL    HW287672   8.275   8.541   4.948
25205SOL     OW87673   8.918   8.293   4.115
25205SOL    HW187674   8.977   8.213   4.104
25205SOL    HW287675   8.944   8.363   4.048
25206SOL     OW87676   8.277   9.173   4.724
25206SOL    HW187677   8.307   9.089   4.679
25206SOL    HW287678   8.193   9.155   4.775
25207SOL     OW87679   8.757   7.851   4.157
25207SOL    HW187680   8.711   7.919   4.100
25207SOL    HW287681   8.856   7.860   4.145
25208SOL     OW87682   7.665   7.986   5.213
25208SOL    HW187683   7.640   7.899   5.169
25208SOL    HW287684   7.631   7.987   5.307
25209SOL     OW87685   7.585   7.733   5.113
25209SOL    HW187686   7.653   7.702   5.048
25209SOL    HW287687   7.494   7.706   5.082
25210SOL     OW87688   8.405   8.269   4.882
25210SOL    HW187689   8.409   8.248   4.784
25210SOL    HW287690   8.326   8.224   4.923
25211SOL     OW87691   9.031   7.831   4.156
25211SOL    HW187692   9.120   7.789   4.137
25211SOL    HW287693   9.017   7.836   4.255
25212SOL     OW87694   8.305   8.921   4.616
25212SOL    HW187695   8.365   8.883   4.546
25212SOL    HW287696   8.210   8.915   4.585
25213SOL     OW87697   8.341   8.686   3.787
25213SOL    HW187698   8.388   8.668   3.873
25213SOL    HW287699   8.408   8.701   3.715
25214SOL     OW87700   9.140   9.000   4.350
25214SOL    HW187701   9.100   9.083   4.389
25214SOL    HW287702   9.129   9.001   4.250
25215SOL     OW87703   8.523   8.338   4.379
25215SOL    HW187704   8.604   8.332   4.437
25215SOL    HW287705   8.474   8.424   4.398
25216SOL     OW87706   8.231   9.027   5.331
25216SOL    HW187707   8.187   8.968   5.263
25216SOL    HW287708   8.234   8.980   5.419
25217SOL     OW87709   8.730   8.338   4.558
25217SOL    HW187710   8.811   8.314   4.611
25217SOL    HW287711   8.674   8.402   4.611
25218SOL     OW87712   7.700   8.460   4.607
25218SOL    HW187713   7.613   8.510   4.601
25218SOL    HW287714   7.723   8.446   4.703
25219SOL     OW87715   8.646   8.762   5.121
25219SOL    HW187716   8.687   8.847   5.154
25219SOL    HW287717   8.547   8.763   5.137
25220SOL     OW87718   7.394   7.657   4.192
25220SOL    HW187719   7.450   7.708   4.127
25220SOL    HW287720   7.431   7.666   4.284
25221SOL     OW87721   9.048   9.208   3.893
25221SOL    HW187722   9.137   9.255   3.891
25221SOL    HW287723   9.035   9.158   3.807
25222SOL     OW87724   8.215   8.154   5.054
25222SOL    HW187725   8.201   8.232   5.116
25222SOL    HW287726   8.257   8.079   5.104
25223SOL     OW87727   7.463   9.229   5.099
25223SOL    HW187728   7.423   9.321   5.108
25223SOL    HW287729   7.446   9.177   5.183
25224SOL     OW87730   7.738   7.939   4.578
25224SOL    HW187731   7.768   7.854   4.534
25224SOL    HW287732   7.773   7.943   4.672
25225SOL     OW87733   7.688   9.139   3.913
25225SOL    HW187734   7.776   9.172   3.881
25225SOL    HW287735   7.676   9.162   4.010
25226SOL     OW87736   8.693   9.121   4.839
25226SOL    HW187737   8.730   9.138   4.747
25226SOL    HW287738   8.621   9.052   4.833
25227SOL     OW87739   7.446   8.582   4.655
25227SOL    HW187740   7.362   8.575   4.601
25227SOL    HW287741   7.441   8.519   4.732
25228SOL     OW87742   8.146   7.406   4.095
25228SOL    HW187743   8.198   7.428   4.013
25228SOL    HW287744   8.145   7.485   4.157
25229SOL     OW87745   7.349   8.589   4.128
25229SOL    HW187746   7.440   8.624   4.109
25229SOL    HW287747   7.311   8.548   4.044
25230SOL     OW87748   8.977   7.674   5.264
25230SOL    HW187749   8.933   7.764   5.263
25230SOL    HW287750   9.028   7.663   5.349
25231SOL     OW87751   8.691   7.613   4.610
25231SOL    HW187752   8.696   7.685   4.540
25231SOL    HW287753   8.724   7.649   4.697
25232SOL     OW87754   8.800   7.431   3.845
25232SOL    HW187755   8.898   7.413   3.854
25232SOL    HW287756   8.749   7.346   3.860
25233SOL     OW87757   8.964   7.394   5.261
25233SOL    HW187758   8.947   7.358   5.170
25233SOL    HW287759   8.960   7.494   5.259
25234SOL     OW87760   8.142   7.606   4.287
25234SOL    HW187761   8.117   7.572   4.378
25234SOL    HW287762   8.195   7.690   4.296
25235SOL     OW87763   8.665   7.986   4.785
25235SOL    HW187764   8.671   8.027   4.694
25235SOL    HW287765   8.703   8.050   4.852
25236SOL     OW87766   8.972   7.437   4.150
25236SOL    HW187767   8.988   7.397   4.060
25236SOL    HW287768   8.883   7.484   4.150
25237SOL     OW87769   7.973   8.785   5.474
25237SOL    HW187770   7.925   8.851   5.416
25237SOL    HW287771   8.061   8.823   5.503
25238SOL     OW87772   7.790   8.477   5.334
25238SOL    HW187773   7.850   8.440   5.263
25238SOL    HW287774   7.780   8.576   5.320
25239SOL     OW87775   7.516   8.795   4.819
25239SOL    HW187776   7.499   8.728   4.746
25239SOL    HW287777   7.437   8.798   4.880
25240SOL     OW87778   8.464   7.931   4.527
25240SOL    HW187779   8.552   7.899   4.493
25240SOL    HW287780   8.443   7.887   4.614
25241SOL     OW87781   9.130   8.004   5.398
25241SOL    HW187782   9.121   8.082   5.336
25241SOL    HW287783   9.226   7.976   5.403
25242SOL     OW87784   8.778   7.741   4.839
25242SOL    HW187785   8.742   7.832   4.821
25242SOL    HW287786   8.758   7.714   4.933
25243SOL     OW87787   8.915   7.865   5.507
25243SOL    HW187788   8.991   7.916   5.468
25243SOL    HW287789   8.946   7.812   5.586
25244SOL     OW87790   8.638   8.278   4.129
25244SOL    HW187791   8.595   8.300   4.216
25244SOL    HW287792   8.737   8.288   4.138
25245SOL     OW87793   8.945   8.362   4.378
25245SOL    HW187794   8.933   8.345   4.281
25245SOL    HW287795   8.859   8.346   4.426
25246SOL     OW87796   9.136   8.214   5.213
25246SOL    HW187797   9.080   8.297   5.217
25246SOL    HW287798   9.229   8.238   5.182
25247SOL     OW87799   8.967   7.679   3.873
25247SOL    HW187800   8.992   7.715   3.962
25247SOL    HW287801   8.887   7.619   3.882
25248SOL     OW87802   8.114   8.877   5.133
25248SOL    HW187803   8.055   8.954   5.108
25248SOL    HW287804   8.073   8.792   5.102
25249SOL     OW87805   7.535   7.687   5.390
25249SOL    HW187806   7.547   7.696   5.291
25249SOL    HW287807   7.440   7.662   5.409
25250SOL     OW87808   7.431   9.077   5.329
25250SOL    HW187809   7.517   9.096   5.375
25250SOL    HW287810   7.355   9.088   5.393
25251SOL     OW87811   7.507   7.688   4.438
25251SOL    HW187812   7.496   7.786   4.453
25251SOL    HW287813   7.600   7.660   4.462
25252SOL     OW87814   8.768   8.988   5.205
25252SOL    HW187815   8.707   9.054   5.249
25252SOL    HW287816   8.826   9.036   5.139
25253SOL     OW87817   9.146   7.606   5.057
25253SOL    HW187818   9.080   7.638   5.125
25253SOL    HW287819   9.114   7.628   4.965
25254SOL     OW87820   7.722   9.144   4.489
25254SOL    HW187821   7.657   9.094   4.431
25254SOL    HW287822   7.813   9.141   4.447
25255SOL     OW87823   7.734   8.698   4.966
25255SOL    HW187824   7.723   8.717   5.063
25255SOL    HW287825   7.661   8.742   4.914
25256SOL     OW87826   8.549   8.967   5.519
25256SOL    HW187827   8.526   8.875   5.486
25256SOL    HW287828   8.562   9.028   5.441
25257SOL     OW87829   7.666   8.221   4.467
25257SOL    HW187830   7.698   8.306   4.507
25257SOL    HW287831   7.727   8.146   4.493
25258SOL     OW87832   7.478   7.952   4.491
25258SOL    HW187833   7.412   7.989   4.556
25258SOL    HW287834   7.570   7.963   4.527
25259SOL     OW87835   8.535   8.118   3.754
25259SOL    HW187836   8.476   8.177   3.699
25259SOL    HW287837   8.591   8.061   3.693
25260SOL     OW87838   8.328   7.922   3.651
25260SOL    HW187839   8.366   7.978   3.724
25260SOL    HW287840   8.233   7.949   3.635
25261SOL     OW87841   8.734   7.577   4.153
25261SOL    HW187842   8.646   7.557   4.197
25261SOL    HW287843   8.748   7.676   4.149
25262SOL     OW87844   8.814   7.903   5.204
25262SOL    HW187845   8.759   7.941   5.278
25262SOL    HW287846   8.761   7.832   5.157
25263SOL     OW87847   7.727   8.436   4.884
25263SOL    HW187848   7.760   8.374   4.955
25263SOL    HW287849   7.736   8.531   4.915
25264SOL     OW87850   9.024   8.443   3.912
25264SOL    HW187851   9.121   8.456   3.933
25264SOL    HW287852   9.014   8.423   3.814
25265SOL     OW87853   8.033   8.100   4.845
25265SOL    HW187854   8.077   8.115   4.933
25265SOL    HW287855   7.947   8.050   4.858
25266SOL     OW87856   8.205   8.381   5.219
25266SOL    HW187857   8.260   8.435   5.155
25266SOL    HW287858   8.170   8.440   5.291
25267SOL     OW87859   8.564   8.442   5.392
25267SOL    HW187860   8.481   8.389   5.412
25267SOL    HW287861   8.645   8.390   5.419
25268SOL     OW87862   8.481   7.641   4.279
25268SOL    HW187863   8.410   7.711   4.288
25268SOL    HW287864   8.475   7.577   4.355
25269SOL     OW87865   8.588   9.159   5.322
25269SOL    HW187866   8.512   9.180   5.261
25269SOL    HW287867   8.629   9.244   5.355
25270SOL     OW87868   8.069   7.499   4.533
25270SOL    HW187869   8.003   7.432   4.499
25270SOL    HW287870   8.147   7.452   4.574
25271SOL     OW87871   7.702   9.187   4.963
25271SOL    HW187872   7.672   9.140   4.880
25271SOL    HW287873   7.624   9.203   5.023
25272SOL     OW87874   8.404   8.563   4.495
25272SOL    HW187875   8.427   8.655   4.464
25272SOL    HW287876   8.457   8.541   4.577
25273SOL     OW87877   8.150   8.303   4.697
25273SOL    HW187878   8.230   8.262   4.654
25273SOL    HW287879   8.095   8.232   4.742
25274SOL     OW87880   7.457   8.394   4.853
25274SOL    HW187881   7.553   8.403   4.879
25274SOL    HW287882   7.448   8.324   4.783
25275SOL     OW87883   7.734   7.355   4.096
25275SOL    HW187884   7.797   7.432   4.110
25275SOL    HW287885   7.647   7.375   4.141
25276SOL     OW87886   8.100   8.027   5.366
25276SOL    HW187887   8.038   8.058   5.294
25276SOL    HW287888   8.193   8.018   5.329
25277SOL     OW87889   7.526   8.385   3.897
25277SOL    HW187890   7.564   8.375   3.989
25277SOL    HW287891   7.567   8.464   3.852
25278SOL     OW87892   9.127   7.628   4.550
25278SOL    HW187893   9.100   7.639   4.646
25278SOL    HW287894   9.226   7.612   4.545
25279SOL     OW87895   8.154   8.552   4.821
25279SOL    HW187896   8.149   8.455   4.797
25279SOL    HW287897   8.150   8.607   4.738
25280SOL     OW87898   8.600   8.031   4.012
25280SOL    HW187899   8.608   8.115   4.064
25280SOL    HW287900   8.575   8.052   3.917
25281SOL     OW87901   8.929   8.851   5.382
25281SOL    HW187902   8.892   8.765   5.418
25281SOL    HW287903   8.861   8.893   5.321
25282SOL     OW87904   7.631   8.224   5.083
25282SOL    HW187905   7.643   8.136   5.129
25282SOL    HW287906   7.595   8.291   5.148
25283SOL     OW87907   8.178   8.900   3.719
25283SOL    HW187908   8.154   8.957   3.797
25283SOL    HW287909   8.234   8.823   3.750
25284SOL     OW87910   8.029   9.057   4.774
25284SOL    HW187911   8.013   9.032   4.679
25284SOL    HW287912   7.946   9.040   4.827
25285SOL     OW87913   8.129   8.537   4.543
25285SOL    HW187914   8.222   8.551   4.509
25285SOL    HW287915   8.122   8.447   4.586
25286SOL     OW87916   8.392   8.860   4.171
25286SOL    HW187917   8.441   8.927   4.116
25286SOL    HW287918   8.400   8.770   4.128
25287SOL     OW87919   7.461   8.215   4.650
25287SOL    HW187920   7.524   8.223   4.573
25287SOL    HW287921   7.371   8.185   4.616
25288SOL     OW87922   7.413   8.296   5.517
25288SOL    HW187923   7.313   8.295   5.514
25288SOL    HW287924   7.445   8.248   5.598
25289SOL     OW87925   8.364   9.193   5.154
25289SOL    HW187926   8.325   9.127   5.218
25289SOL    HW287927   8.291   9.250   5.117
25290SOL     OW87928   8.574   8.510   4.706
25290SOL    HW187929   8.610   8.603   4.714
25290SOL    HW287930   8.564   8.471   4.797
25291SOL     OW87931   7.919   7.783   5.484
25291SOL    HW187932   7.991   7.767   5.416
25291SOL    HW287933   7.919   7.879   5.511
25292SOL     OW87934   8.965   8.317   4.701
25292SOL    HW187935   9.001   8.400   4.657
25292SOL    HW287936   8.937   8.338   4.794
25293SOL     OW87937   8.717   7.667   5.098
25293SOL    HW187938   8.771   7.629   5.173
25293SOL    HW287939   8.650   7.599   5.067
25294SOL     OW87940   7.484   7.391   4.209
25294SOL    HW187941   7.430   7.320   4.164
25294SOL    HW287942   7.437   7.478   4.202
25295SOL     OW87943   8.645   7.555   5.376
25295SOL    HW187944   8.655   7.571   5.474
25295SOL    HW287945   8.579   7.619   5.338
25296SOL     OW87946   7.831   8.977   5.325
25296SOL    HW187947   7.773   9.042   5.375
25296SOL    HW287948   7.874   9.024   5.248
25297SOL     OW87949   9.154   8.853   5.223
25297SOL    HW187950   9.206   8.936   5.241
25297SOL    HW287951   9.074   8.850   5.283
25298SOL     OW87952   8.427   7.843   4.787
25298SOL    HW187953   8.508   7.899   4.805
25298SOL    HW287954   8.438   7.754   4.830
25299SOL     OW87955   7.820   8.865   4.367
25299SOL    HW187956   7.833   8.770   4.397
25299SOL    HW287957   7.722   8.886   4.367
25300SOL     OW87958   8.477   8.941   4.832
25300SOL    HW187959   8.411   8.930   4.757
25300SOL    HW287960   8.428   8.963   4.916
25301SOL     OW87961   7.659   9.160   5.455
25301SOL    HW187962   7.646   9.257   5.433
25301SOL    HW287963   7.665   9.149   5.554
25302SOL     OW87964   7.495   8.653   5.358
25302SOL    HW187965   7.482   8.559   5.327
25302SOL    HW287966   7.426   8.713   5.317
25303SOL     OW87967   7.596   9.057   4.745
25303SOL    HW187968   7.576   8.960   4.755
25303SOL    HW287969   7.634   9.074   4.654
25304SOL     OW87970   8.454   7.508   4.515
25304SOL    HW187971   8.536   7.539   4.564
25304SOL    HW287972   8.389   7.470   4.581
25305SOL     OW87973   8.462   8.621   4.053
25305SOL    HW187974   8.552   8.631   4.096
25305SOL    HW287975   8.434   8.526   4.056
25306SOL     OW87976   8.998   7.849   4.435
25306SOL    HW187977   9.025   7.929   4.488
25306SOL    HW287978   9.044   7.768   4.473
25307SOL     OW87979   8.293   7.427   3.859
25307SOL    HW187980   8.318   7.331   3.845
25307SOL    HW287981   8.376   7.483   3.861
25308SOL     OW87982   7.946   8.400   5.123
25308SOL    HW187983   8.034   8.371   5.160
25308SOL    HW287984   7.954   8.492   5.084
25309SOL     OW87985   9.138   8.513   5.011
25309SOL    HW187986   9.141   8.611   4.992
25309SOL    HW287987   9.193   8.465   4.942
25310SOL     OW87988   7.631   8.594   3.759
25310SOL    HW187989   7.593   8.632   3.674
25310SOL    HW287990   7.694   8.660   3.799
25311SOL     OW87991   8.060   9.048   3.923
25311SOL    HW187992   7.994   9.109   3.879
25311SOL    HW287993   8.012   8.990   3.989
25312SOL     OW87994   8.720   8.504   5.172
25312SOL    HW187995   8.663   8.469   5.246
25312SOL    HW287996   8.696   8.600   5.154
25313SOL     OW87997   7.936   9.103   5.095
25313SOL    HW187998   8.002   9.178   5.090
25313SOL    HW287999   7.852   9.130   5.050
25314SOL     OW88000   7.564   7.949   5.471
25314SOL    HW188001   7.561   7.850   5.455
25314SOL    HW288002   7.621   7.968   5.551
25315SOL     OW88003   8.997   8.932   4.742
25315SOL    HW188004   9.038   9.021   4.763
25315SOL    HW288005   9.018   8.868   4.815
25316SOL     OW88006   7.367   8.369   4.293
25316SOL    HW188007   7.362   8.454   4.241
25316SOL    HW288008   7.279   8.350   4.336
25317SOL     OW88009   7.915   8.114   5.186
25317SOL    HW188010   7.829   8.064   5.192
25317SOL    HW288011   7.898   8.205   5.149
25318SOL     OW88012   9.014   8.558   4.559
25318SOL    HW188013   8.994   8.654   4.541
25318SOL    HW288014   8.986   8.503   4.480
25319SOL     OW88015   8.147   7.861   4.762
25319SOL    HW188016   8.247   7.859   4.769
25319SOL    HW288017   8.115   7.953   4.783
25320SOL     OW88018   7.998   8.653   5.019
25320SOL    HW188019   7.907   8.678   4.988
25320SOL    HW288020   8.052   8.621   4.941
25321SOL     OW88021   7.558   8.074   4.866
25321SOL    HW188022   7.580   8.136   4.941
25321SOL    HW288023   7.534   8.127   4.785
25322SOL     OW88024   7.723   8.739   5.236
25322SOL    HW188025   7.762   8.826   5.269
25322SOL    HW288026   7.638   8.720   5.285
25323SOL     OW88027   9.034   9.088   5.480
25323SOL    HW188028   8.999   8.996   5.463
25323SOL    HW288029   9.001   9.151   5.409
25324SOL     OW88030   8.720   8.641   4.154
25324SOL    HW188031   8.806   8.647   4.205
25324SOL    HW288032   8.738   8.626   4.057
25325SOL     OW88033   9.010   7.406   4.423
25325SOL    HW188034   8.990   7.425   4.327
25325SOL    HW288035   9.052   7.487   4.465
25326SOL     OW88036   8.534   8.127   5.087
25326SOL    HW188037   8.633   8.126   5.072
25326SOL    HW288038   8.491   8.182   5.016
25327SOL     OW88039   8.659   8.770   4.721
25327SOL    HW188040   8.593   8.826   4.771
25327SOL    HW288041   8.687   8.818   4.638
25328SOL     OW88042   8.717   7.834   4.437
25328SOL    HW188043   8.699   7.830   4.339
25328SOL    HW288044   8.816   7.845   4.452
25329SOL     OW88045   8.471   8.845   6.289
25329SOL    HW188046   8.567   8.874   6.288
25329SOL    HW288047   8.431   8.858   6.199
25330SOL     OW88048   8.994   8.652   6.083
25330SOL    HW188049   9.007   8.724   6.151
25330SOL    HW288050   9.083   8.618   6.053
25331SOL     OW88051   9.011   8.042   6.912
25331SOL    HW188052   8.946   7.989   6.967
25331SOL    HW288053   9.065   8.101   6.971
25332SOL     OW88054   7.743   7.589   5.534
25332SOL    HW188055   7.661   7.612   5.480
25332SOL    HW288056   7.815   7.654   5.514
25333SOL     OW88057   8.739   8.931   6.335
25333SOL    HW188058   8.750   9.026   6.363
25333SOL    HW288059   8.828   8.894   6.309
25334SOL     OW88060   8.531   7.512   6.855
25334SOL    HW188061   8.469   7.453   6.907
25334SOL    HW288062   8.587   7.456   6.794
25335SOL     OW88063   8.359   8.261   7.273
25335SOL    HW188064   8.336   8.194   7.202
25335SOL    HW288065   8.275   8.290   7.319
25336SOL     OW88066   7.945   8.860   5.946
25336SOL    HW188067   7.904   8.890   6.032
25336SOL    HW288068   8.018   8.794   5.966
25337SOL     OW88069   7.919   7.417   5.669
25337SOL    HW188070   8.011   7.455   5.678
25337SOL    HW288071   7.861   7.482   5.619
25338SOL     OW88072   8.977   8.441   7.080
25338SOL    HW188073   8.882   8.461   7.055
25338SOL    HW288074   9.037   8.469   7.006
25339SOL     OW88075   8.823   8.437   6.757
25339SOL    HW188076   8.778   8.441   6.847
25339SOL    HW288077   8.860   8.528   6.734
25340SOL     OW88078   8.373   8.752   6.982
25340SOL    HW188079   8.287   8.803   6.980
25340SOL    HW288080   8.364   8.670   6.925
25341SOL     OW88081   7.863   8.611   6.221
25341SOL    HW188082   7.811   8.559   6.289
25341SOL    HW288083   7.959   8.586   6.227
25342SOL     OW88084   8.092   8.005   6.113
25342SOL    HW188085   8.125   8.081   6.056
25342SOL    HW288086   8.071   7.927   6.056
25343SOL     OW88087   8.665   7.929   7.279
25343SOL    HW188088   8.756   7.904   7.313
25343SOL    HW288089   8.605   7.849   7.281
25344SOL     OW88090   7.816   8.769   5.706
25344SOL    HW188091   7.872   8.783   5.625
25344SOL    HW288092   7.860   8.813   5.785
25345SOL     OW88093   7.926   7.691   6.556
25345SOL    HW188094   7.988   7.769   6.548
25345SOL    HW288095   7.968   7.609   6.516
25346SOL     OW88096   7.724   8.124   6.029
25346SOL    HW188097   7.762   8.153   6.117
25346SOL    HW288098   7.626   8.107   6.039
25347SOL     OW88099   8.181   9.079   6.158
25347SOL    HW188100   8.240   9.007   6.121
25347SOL    HW288101   8.163   9.148   6.088
25348SOL     OW88102   9.113   8.999   5.921
25348SOL    HW188103   9.200   8.958   5.894
25348SOL    HW288104   9.084   9.066   5.853
25349SOL     OW88105   9.039   7.706   6.644
25349SOL    HW188106   9.080   7.797   6.657
25349SOL    HW288107   8.940   7.713   6.651
25350SOL     OW88108   8.466   7.756   5.873
25350SOL    HW188109   8.515   7.843   5.878
25350SOL    HW288110   8.473   7.709   5.961
25351SOL     OW88111   7.557   8.413   7.121
25351SOL    HW188112   7.649   8.442   7.146
25351SOL    HW288113   7.515   8.366   7.199
25352SOL     OW88114   7.907   8.064   5.557
25352SOL    HW188115   7.880   8.160   5.558
25352SOL    HW288116   7.985   8.052   5.495
25353SOL     OW88117   8.049   8.987   6.372
25353SOL    HW188118   8.105   9.027   6.300
25353SOL    HW288119   7.968   8.944   6.332
25354SOL     OW88120   8.361   8.021   7.107
25354SOL    HW188121   8.397   7.940   7.154
25354SOL    HW288122   8.435   8.066   7.057
25355SOL     OW88123   9.009   8.830   6.316
25355SOL    HW188124   9.017   8.853   6.413
25355SOL    HW288125   9.070   8.889   6.262
25356SOL     OW88126   7.685   8.650   6.011
25356SOL    HW188127   7.750   8.638   6.086
25356SOL    HW288128   7.715   8.596   5.932
25357SOL     OW88129   8.578   7.655   5.643
25357SOL    HW188130   8.657   7.601   5.672
25357SOL    HW288131   8.530   7.691   5.723
25358SOL     OW88132   7.751   7.906   6.800
25358SOL    HW188133   7.747   7.806   6.790
25358SOL    HW288134   7.670   7.946   6.758
25359SOL     OW88135   8.786   8.166   6.817
25359SOL    HW188136   8.804   8.261   6.789
25359SOL    HW288137   8.872   8.124   6.848
25360SOL     OW88138   7.776   7.675   5.994
25360SOL    HW188139   7.722   7.712   6.070
25360SOL    HW288140   7.727   7.691   5.908
25361SOL     OW88141   8.920   9.135   6.869
25361SOL    HW188142   8.843   9.140   6.805
25361SOL    HW288143   9.005   9.127   6.817
25362SOL     OW88144   9.138   7.956   6.691
25362SOL    HW188145   9.232   7.991   6.696
25362SOL    HW288146   9.087   7.985   6.772
25363SOL     OW88147   9.166   9.120   6.717
25363SOL    HW188148   9.203   9.159   6.801
25363SOL    HW288149   9.240   9.103   6.652
25364SOL     OW88150   8.318   7.856   6.187
25364SOL    HW188151   8.381   7.896   6.254
25364SOL    HW288152   8.245   7.920   6.167
25365SOL     OW88153   8.638   8.348   5.692
25365SOL    HW188154   8.663   8.310   5.781
25365SOL    HW288155   8.587   8.279   5.640
25366SOL     OW88156   8.476   7.721   7.301
25366SOL    HW188157   8.519   7.728   7.391
25366SOL    HW288158   8.397   7.661   7.307
25367SOL     OW88159   9.148   8.072   5.905
25367SOL    HW188160   9.097   7.987   5.917
25367SOL    HW288161   9.215   8.082   5.979
25368SOL     OW88162   8.390   9.136   5.684
25368SOL    HW188163   8.427   9.083   5.608
25368SOL    HW288164   8.408   9.088   5.770
25369SOL     OW88165   8.108   7.424   7.254
25369SOL    HW188166   8.136   7.334   7.219
25369SOL    HW288167   8.180   7.460   7.313
25370SOL     OW88168   9.070   8.047   6.443
25370SOL    HW188169   9.027   8.137   6.447
25370SOL    HW288170   9.086   8.013   6.535
25371SOL     OW88171   8.480   8.701   7.254
25371SOL    HW188172   8.519   8.609   7.248
25371SOL    HW288173   8.428   8.720   7.171
25372SOL     OW88174   8.136   8.533   7.243
25372SOL    HW188175   8.077   8.612   7.262
25372SOL    HW288176   8.140   8.475   7.324
25373SOL     OW88177   8.753   7.358   6.423
25373SOL    HW188178   8.714   7.450   6.429
25373SOL    HW288179   8.840   7.362   6.374
25374SOL     OW88180   9.151   7.630   7.339
25374SOL    HW188181   9.105   7.671   7.418
25374SOL    HW288182   9.182   7.538   7.363
25375SOL     OW88183   7.463   8.094   6.116
25375SOL    HW188184   7.469   8.027   6.190
25375SOL    HW288185   7.441   8.184   6.154
25376SOL     OW88186   7.724   7.594   6.363
25376SOL    HW188187   7.785   7.635   6.431
25376SOL    HW288188   7.764   7.509   6.329
25377SOL     OW88189   7.752   7.628   6.769
25377SOL    HW188190   7.737   7.529   6.779
25377SOL    HW288191   7.815   7.644   6.693
25378SOL     OW88192   8.515   8.177   6.499
25378SOL    HW188193   8.578   8.239   6.453
25378SOL    HW288194   8.493   8.100   6.439
25379SOL     OW88195   7.589   8.905   5.935
25379SOL    HW188196   7.619   8.812   5.959
25379SOL    HW288197   7.640   8.937   5.856
25380SOL     OW88198   8.856   8.721   6.765
25380SOL    HW188199   8.815   8.753   6.680
25380SOL    HW288200   8.790   8.731   6.840
25381SOL     OW88201   7.590   9.002   6.205
25381SOL    HW188202   7.494   9.008   6.232
25381SOL    HW288203   7.596   8.991   6.105
25382SOL     OW88204   9.125   8.762   6.801
25382SOL    HW188205   9.149   8.793   6.893
25382SOL    HW288206   9.026   8.748   6.795
25383SOL     OW88207   7.869   8.339   5.565
25383SOL    HW188208   7.839   8.386   5.482
25383SOL    HW288209   7.848   8.395   5.645
25384SOL     OW88210   8.340   8.530   6.819
25384SOL    HW188211   8.382   8.442   6.794
25384SOL    HW288212   8.278   8.559   6.746
25385SOL     OW88213   7.493   8.175   5.747
25385SOL    HW188214   7.571   8.113   5.748
25385SOL    HW288215   7.417   8.134   5.798
25386SOL     OW88216   8.984   8.294   5.937
25386SOL    HW188217   9.043   8.214   5.925
25386SOL    HW288218   9.008   8.363   5.868
25387SOL     OW88219   8.266   9.220   6.543
25387SOL    HW188220   8.304   9.132   6.513
25387SOL    HW288221   8.185   9.203   6.599
25388SOL     OW88222   8.138   8.293   5.625
25388SOL    HW188223   8.162   8.202   5.658
25388SOL    HW288224   8.041   8.296   5.603
25389SOL     OW88225   8.761   7.811   5.977
25389SOL    HW188226   8.715   7.878   5.919
25389SOL    HW288227   8.860   7.827   5.975
25390SOL     OW88228   7.692   8.058   7.023
25390SOL    HW188229   7.714   7.985   6.959
25390SOL    HW288230   7.642   8.021   7.101
25391SOL     OW88231   7.550   7.680   6.965
25391SOL    HW188232   7.629   7.663   6.906
25391SOL    HW288233   7.465   7.663   6.913
25392SOL     OW88234   8.409   8.276   6.738
25392SOL    HW188235   8.441   8.242   6.649
25392SOL    HW288236   8.331   8.222   6.768
25393SOL     OW88237   9.040   7.824   5.995
25393SOL    HW188238   9.131   7.782   5.987
25393SOL    HW288239   9.017   7.835   6.091
25394SOL     OW88240   8.312   8.955   6.480
25394SOL    HW188241   8.370   8.918   6.408
25394SOL    HW288242   8.216   8.950   6.452
25395SOL     OW88243   8.213   7.767   5.780
25395SOL    HW188244   8.147   7.761   5.854
25395SOL    HW288245   8.306   7.764   5.817
25396SOL     OW88246   8.354   8.684   5.686
25396SOL    HW188247   8.406   8.661   5.769
25396SOL    HW288248   8.416   8.683   5.607
25397SOL     OW88249   9.169   9.008   6.187
25397SOL    HW188250   9.127   9.089   6.227
25397SOL    HW288251   9.149   9.005   6.089
25398SOL     OW88252   8.584   8.305   6.140
25398SOL    HW188253   8.616   8.328   6.231
25398SOL    HW288254   8.491   8.341   6.127
25399SOL     OW88255   8.227   9.023   7.167
25399SOL    HW188256   8.184   8.970   7.093
25399SOL    HW288257   8.230   8.968   7.250
25400SOL     OW88258   8.702   8.350   6.387
25400SOL    HW188259   8.790   8.328   6.431
25400SOL    HW288260   8.661   8.428   6.435
25401SOL     OW88261   7.719   8.470   6.404
25401SOL    HW188262   7.626   8.507   6.407
25401SOL    HW288263   7.751   8.455   6.498
25402SOL     OW88264   8.324   8.394   6.082
25402SOL    HW188265   8.279   8.323   6.029
25402SOL    HW288266   8.260   8.430   6.150
25403SOL     OW88267   8.650   8.757   6.950
25403SOL    HW188268   8.690   8.840   6.988
25403SOL    HW288269   8.551   8.760   6.961
25404SOL     OW88270   7.443   7.731   5.954
25404SOL    HW188271   7.506   7.738   5.877
25404SOL    HW288272   7.493   7.739   6.040
25405SOL     OW88273   9.049   9.196   5.733
25405SOL    HW188274   9.133   9.250   5.738
25405SOL    HW288275   9.044   9.150   5.644
25406SOL     OW88276   8.215   8.148   6.898
25406SOL    HW188277   8.200   8.235   6.944
25406SOL    HW288278   8.264   8.085   6.959
25407SOL     OW88279   7.457   9.220   6.943
25407SOL    HW188280   7.408   9.306   6.937
25407SOL    HW288281   7.445   9.180   7.034
25408SOL     OW88282   8.179   8.200   5.943
25408SOL    HW188283   8.086   8.231   5.922
25408SOL    HW288284   8.216   8.151   5.864
25409SOL     OW88285   7.715   7.945   6.466
25409SOL    HW188286   7.772   7.919   6.388
25409SOL    HW288287   7.763   7.922   6.551
25410SOL     OW88288   7.687   9.149   5.738
25410SOL    HW188289   7.778   9.183   5.713
25410SOL    HW288290   7.672   9.164   5.836
25411SOL     OW88291   8.706   9.131   6.692
25411SOL    HW188292   8.740   9.149   6.600
25411SOL    HW288293   8.630   9.066   6.688
25412SOL     OW88294   7.458   8.563   6.471
25412SOL    HW188295   7.366   8.558   6.432
25412SOL    HW288296   7.466   8.495   6.544
25413SOL     OW88297   8.118   7.455   5.963
25413SOL    HW188298   8.138   7.452   5.865
25413SOL    HW288299   8.091   7.548   5.988
25414SOL     OW88300   7.425   8.544   6.056
25414SOL    HW188301   7.507   8.600   6.066
25414SOL    HW288302   7.422   8.505   5.964
25415SOL     OW88303   9.003   7.696   7.108
25415SOL    HW188304   8.947   7.778   7.106
25415SOL    HW288305   9.049   7.688   7.197
25416SOL     OW88306   8.665   7.617   6.456
25416SOL    HW188307   8.682   7.681   6.381
25416SOL    HW288308   8.701   7.655   6.541
25417SOL     OW88309   8.790   7.508   5.738
25417SOL    HW188310   8.828   7.418   5.717
25417SOL    HW288311   8.751   7.507   5.830
25418SOL     OW88312   8.999   7.419   7.109
25418SOL    HW188313   8.975   7.384   7.018
25418SOL    HW288314   8.994   7.518   7.109
25419SOL     OW88315   8.096   7.688   6.258
25419SOL    HW188316   8.081   7.607   6.314
25419SOL    HW288317   8.190   7.719   6.268
25420SOL     OW88318   8.629   7.995   6.673
25420SOL    HW188319   8.589   8.057   6.606
25420SOL    HW288320   8.686   8.047   6.737
25421SOL     OW88321   8.960   7.421   6.000
25421SOL    HW188322   8.978   7.387   5.907
25421SOL    HW288323   8.869   7.462   6.003
25422SOL     OW88324   7.970   8.770   7.296
25422SOL    HW188325   7.926   8.840   7.240
25422SOL    HW288326   8.058   8.803   7.328
25423SOL     OW88327   7.809   8.507   7.185
25423SOL    HW188328   7.861   8.486   7.103
25423SOL    HW288329   7.826   8.602   7.212
25424SOL     OW88330   7.495   8.759   6.661
25424SOL    HW188331   7.481   8.700   6.581
25424SOL    HW288332   7.418   8.748   6.724
25425SOL     OW88333   8.496   7.933   6.376
25425SOL    HW188334   8.581   7.891   6.342
25425SOL    HW288335   8.465   7.883   6.457
25426SOL     OW88336   9.146   8.016   7.267
25426SOL    HW188337   9.135   8.086   7.197
25426SOL    HW288338   9.243   8.006   7.290
25427SOL     OW88339   8.766   7.753   6.678
25427SOL    HW188340   8.723   7.843   6.669
25427SOL    HW288341   8.756   7.720   6.771
25428SOL     OW88342   8.924   7.873   7.350
25428SOL    HW188343   9.003   7.926   7.318
25428SOL    HW288344   8.949   7.819   7.430
25429SOL     OW88345   8.719   8.224   5.923
25429SOL    HW188346   8.668   8.254   6.004
25429SOL    HW288347   8.815   8.251   5.933
25430SOL     OW88348   8.949   8.356   6.202
25430SOL    HW188349   8.958   8.343   6.103
25430SOL    HW288350   8.853   8.347   6.228
25431SOL     OW88351   9.139   8.217   7.074
25431SOL    HW188352   9.072   8.291   7.072
25431SOL    HW288353   9.232   8.255   7.076
25432SOL     OW88354   8.992   7.700   5.719
25432SOL    HW188355   9.009   7.739   5.810
25432SOL    HW288356   8.919   7.633   5.725
25433SOL     OW88357   8.115   8.889   6.955
25433SOL    HW188358   8.054   8.966   6.938
25433SOL    HW288359   8.079   8.808   6.907
25434SOL     OW88360   7.493   7.694   7.232
25434SOL    HW188361   7.515   7.684   7.135
25434SOL    HW288362   7.401   7.659   7.249
25435SOL     OW88363   7.442   9.087   7.186
25435SOL    HW188364   7.529   9.099   7.235
25435SOL    HW288365   7.367   9.087   7.251
25436SOL     OW88366   7.583   7.739   6.186
25436SOL    HW188367   7.540   7.814   6.236
25436SOL    HW288368   7.635   7.682   6.249
25437SOL     OW88369   8.773   8.978   7.045
25437SOL    HW188370   8.707   9.039   7.089
25437SOL    HW288371   8.829   9.030   6.981
25438SOL     OW88372   7.718   8.000   5.753
25438SOL    HW188373   7.794   8.021   5.692
25438SOL    HW288374   7.739   8.033   5.845
25439SOL     OW88375   9.168   7.645   6.893
25439SOL    HW188376   9.103   7.670   6.965
25439SOL    HW288377   9.123   7.652   6.804
25440SOL     OW88378   7.805   9.193   6.265
25440SOL    HW188379   7.721   9.141   6.249
25440SOL    HW288380   7.873   9.171   6.194
25441SOL     OW88381   7.737   8.677   6.769
25441SOL    HW188382   7.737   8.707   6.865
25441SOL    HW288383   7.653   8.709   6.724
25442SOL     OW88384   8.540   8.949   7.358
25442SOL    HW188385   8.518   8.858   7.322
25442SOL    HW288386   8.555   9.012   7.281
25443SOL     OW88387   8.136   8.671   6.015
25443SOL    HW188388   8.148   8.611   5.935
25443SOL    HW288389   8.139   8.615   6.099
25444SOL     OW88390   7.791   8.220   6.284
25444SOL    HW188391   7.774   8.313   6.317
25444SOL    HW288392   7.876   8.186   6.324
25445SOL     OW88393   7.640   7.731   5.758
25445SOL    HW188394   7.681   7.680   5.683
25445SOL    HW288395   7.667   7.827   5.752
25446SOL     OW88396   7.473   7.935   6.338
25446SOL    HW188397   7.397   7.978   6.387
25446SOL    HW288398   7.556   7.942   6.394
25447SOL     OW88399   7.873   8.515   5.789
25447SOL    HW188400   7.973   8.521   5.794
25447SOL    HW288401   7.836   8.601   5.755
25448SOL     OW88402   8.502   8.106   5.584
25448SOL    HW188403   8.447   8.166   5.526
25448SOL    HW288404   8.565   8.053   5.527
25449SOL     OW88405   8.253   8.053   5.719
25449SOL    HW188406   8.343   8.062   5.676
25449SOL    HW288407   8.228   7.956   5.724
25450SOL     OW88408   8.709   7.545   5.998
25450SOL    HW188409   8.623   7.533   6.047
25450SOL    HW288410   8.732   7.642   5.992
25451SOL     OW88411   8.821   7.908   7.047
25451SOL    HW188412   8.764   7.941   7.122
25451SOL    HW288413   8.774   7.833   7.000
25452SOL     OW88414   7.471   7.455   5.710
25452SOL    HW188415   7.546   7.392   5.728
25452SOL    HW288416   7.499   7.548   5.734
25453SOL     OW88417   7.812   8.432   6.663
25453SOL    HW188418   7.805   8.364   6.736
25453SOL    HW288419   7.787   8.522   6.698
25454SOL     OW88420   9.067   8.447   5.726
25454SOL    HW188421   9.165   8.465   5.733
25454SOL    HW288422   9.043   8.431   5.631
25455SOL     OW88423   8.003   8.038   6.744
25455SOL    HW188424   8.061   8.083   6.812
25455SOL    HW288425   7.920   8.005   6.788
25456SOL     OW88426   8.208   8.395   7.021
25456SOL    HW188427   8.266   8.450   6.960
25456SOL    HW288428   8.195   8.444   7.107
25457SOL     OW88429   8.559   8.438   7.217
25457SOL    HW188430   8.477   8.381   7.230
25457SOL    HW288431   8.640   8.387   7.246
25458SOL     OW88432   8.463   7.633   6.127
25458SOL    HW188433   8.410   7.717   6.141
25458SOL    HW288434   8.449   7.572   6.204
25459SOL     OW88435   8.588   9.139   7.165
25459SOL    HW188436   8.513   9.167   7.104
25459SOL    HW288437   8.619   9.217   7.218
25460SOL     OW88438   8.033   7.479   6.421
25460SOL    HW188439   7.971   7.411   6.381
25460SOL    HW288440   8.112   7.432   6.461
25461SOL     OW88441   7.693   9.186   6.805
25461SOL    HW188442   7.667   9.129   6.727
25461SOL    HW288443   7.613   9.199   6.864
25462SOL     OW88444   8.361   8.621   6.403
25462SOL    HW188445   8.397   8.703   6.357
25462SOL    HW288446   8.435   8.575   6.451
25463SOL     OW88447   8.029   8.378   6.480
25463SOL    HW188448   8.041   8.283   6.453
25463SOL    HW288449   7.953   8.384   6.545
25464SOL     OW88450   7.492   8.370   6.657
25464SOL    HW188451   7.553   8.350   6.734
25464SOL    HW288452   7.513   8.308   6.582
25465SOL     OW88453   7.650   7.412   5.995
25465SOL    HW188454   7.706   7.491   6.021
25465SOL    HW288455   7.556   7.426   6.026
25466SOL     OW88456   8.105   8.060   7.215
25466SOL    HW188457   8.049   8.106   7.145
25466SOL    HW288458   8.193   8.035   7.176
25467SOL     OW88459   7.466   8.451   5.798
25467SOL    HW188460   7.492   8.356   5.779
25467SOL    HW288461   7.513   8.512   5.734
25468SOL     OW88462   9.105   7.609   6.390
25468SOL    HW188463   9.083   7.630   6.485
25468SOL    HW288464   9.203   7.598   6.380
25469SOL     OW88465   8.173   8.581   6.604
25469SOL    HW188466   8.122   8.504   6.565
25469SOL    HW288467   8.238   8.615   6.536
25470SOL     OW88468   8.612   7.993   5.828
25470SOL    HW188469   8.649   8.074   5.872
25470SOL    HW288470   8.572   8.019   5.740
25471SOL     OW88471   8.940   8.817   7.192
25471SOL    HW188472   8.899   8.737   7.236
25471SOL    HW288473   8.871   8.865   7.138
25472SOL     OW88474   7.632   8.281   6.879
25472SOL    HW188475   7.659   8.197   6.927
25472SOL    HW288476   7.607   8.351   6.945
25473SOL     OW88477   8.208   8.889   5.568
25473SOL    HW188478   8.159   8.944   5.636
25473SOL    HW288479   8.264   8.821   5.614
25474SOL     OW88480   8.028   9.106   6.624
25474SOL    HW188481   8.025   9.058   6.536
25474SOL    HW288482   7.957   9.071   6.684
25475SOL     OW88483   8.142   8.521   6.264
25475SOL    HW188484   8.221   8.566   6.307
25475SOL    HW288485   8.097   8.462   6.332
25476SOL     OW88486   8.330   8.870   6.055
25476SOL    HW188487   8.395   8.882   5.979
25476SOL    HW288488   8.267   8.796   6.034
25477SOL     OW88489   7.546   8.212   6.443
25477SOL    HW188490   7.631   8.180   6.401
25477SOL    HW288491   7.487   8.253   6.374
25478SOL     OW88492   7.422   8.284   7.317
25478SOL    HW188493   7.348   8.227   7.284
25478SOL    HW288494   7.445   8.259   7.411
25479SOL     OW88495   8.367   9.197   7.003
25479SOL    HW188496   8.324   9.129   7.062
25479SOL    HW288497   8.297   9.256   6.964
25480SOL     OW88498   8.585   8.538   6.549
25480SOL    HW188499   8.622   8.631   6.553
25480SOL    HW288500   8.592   8.495   6.639
25481SOL     OW88501   7.875   7.830   7.281
25481SOL    HW188502   7.956   7.798   7.232
25481SOL    HW288503   7.892   7.921   7.319
25482SOL     OW88504   7.920   8.263   5.896
25482SOL    HW188505   7.889   8.353   5.865
25482SOL    HW288506   7.845   8.216   5.943
25483SOL     OW88507   8.944   8.326   6.522
25483SOL    HW188508   8.988   8.405   6.479
25483SOL    HW288509   8.913   8.351   6.614
25484SOL     OW88510   8.728   7.673   6.942
25484SOL    HW188511   8.779   7.623   7.011
25484SOL    HW288512   8.647   7.621   6.915
25485SOL     OW88513   7.388   7.476   6.043
25485SOL    HW188514   7.292   7.448   6.033
25485SOL    HW288515   7.399   7.570   6.011
25486SOL     OW88516   8.686   7.534   7.274
25486SOL    HW188517   8.732   7.531   7.363
25486SOL    HW288518   8.615   7.604   7.276
25487SOL     OW88519   7.844   8.978   7.161
25487SOL    HW188520   7.787   9.036   7.219
25487SOL    HW288521   7.881   9.033   7.085
25488SOL     OW88522   9.183   8.823   7.063
25488SOL    HW188523   9.224   8.911   7.087
25488SOL    HW288524   9.095   8.814   7.111
25489SOL     OW88525   8.401   7.835   6.620
25489SOL    HW188526   8.474   7.890   6.661
25489SOL    HW288527   8.403   7.743   6.659
25490SOL     OW88528   7.842   8.885   6.215
25490SOL    HW188529   7.843   8.785   6.221
25490SOL    HW288530   7.748   8.917   6.220
25491SOL     OW88531   8.490   8.954   6.688
25491SOL    HW188532   8.445   8.943   6.776
25491SOL    HW288533   8.422   8.957   6.615
25492SOL     OW88534   7.679   9.136   7.328
25492SOL    HW188535   7.706   9.233   7.330
25492SOL    HW288536   7.674   9.101   7.421
25493SOL     OW88537   7.525   8.682   7.185
25493SOL    HW188538   7.515   8.587   7.156
25493SOL    HW288539   7.451   8.737   7.147
25494SOL     OW88540   7.584   9.015   6.605
25494SOL    HW188541   7.561   8.920   6.626
25494SOL    HW288542   7.605   9.024   6.508
25495SOL     OW88543   8.413   7.523   6.377
25495SOL    HW188544   8.499   7.550   6.421
25495SOL    HW288545   8.358   7.469   6.440
25496SOL     OW88546   8.460   8.595   5.929
25496SOL    HW188547   8.550   8.611   5.968
25496SOL    HW288548   8.414   8.522   5.981
25497SOL     OW88549   8.995   7.838   6.270
25497SOL    HW188550   9.020   7.917   6.327
25497SOL    HW288551   9.034   7.755   6.309
25498SOL     OW88552   8.148   8.527   5.776
25498SOL    HW188553   8.220   8.587   5.743
25498SOL    HW288554   8.160   8.435   5.738
25499SOL     OW88555   8.180   7.498   5.691
25499SOL    HW188556   8.262   7.441   5.695
25499SOL    HW288557   8.206   7.593   5.709
25500SOL     OW88558   7.886   7.872   6.267
25500SOL    HW188559   7.949   7.794   6.277
25500SOL    HW288560   7.930   7.943   6.212
25501SOL     OW88561   7.952   8.452   6.958
25501SOL    HW188562   8.044   8.423   6.982
25501SOL    HW288563   7.956   8.537   6.904
25502SOL     OW88564   9.145   8.495   6.873
25502SOL    HW188565   9.145   8.591   6.844
25502SOL    HW288566   9.197   8.440   6.807
25503SOL     OW88567   7.591   8.621   5.625
25503SOL    HW188568   7.557   8.638   5.532
25503SOL    HW288569   7.663   8.686   5.646
25504SOL     OW88570   8.042   9.018   5.739
25504SOL    HW188571   7.987   9.100   5.720
25504SOL    HW288572   8.011   8.976   5.824
25505SOL     OW88573   8.717   8.499   7.001
25505SOL    HW188574   8.656   8.463   7.072
25505SOL    HW288575   8.694   8.595   6.983
25506SOL     OW88576   7.933   9.112   6.931
25506SOL    HW188577   7.997   9.188   6.927
25506SOL    HW288578   7.847   9.138   6.887
25507SOL     OW88579   7.551   7.964   7.244
25507SOL    HW188580   7.536   7.865   7.243
25507SOL    HW288581   7.610   7.988   7.321
25508SOL     OW88582   9.049   8.907   6.572
25508SOL    HW188583   9.068   9.000   6.603
25508SOL    HW288584   9.077   8.842   6.643
25509SOL     OW88585   7.391   8.328   6.234
25509SOL    HW188586   7.416   8.408   6.179
25509SOL    HW288587   7.291   8.323   6.240
25510SOL     OW88588   7.935   8.183   7.042
25510SOL    HW188589   7.845   8.140   7.043
25510SOL    HW288590   7.926   8.277   7.007
25511SOL     OW88591   9.029   8.555   6.378
25511SOL    HW188592   9.009   8.651   6.358
25511SOL    HW288593   8.999   8.498   6.301
25512SOL     OW88594   8.121   7.903   6.545
25512SOL    HW188595   8.217   7.882   6.565
25512SOL    HW288596   8.082   7.955   6.621
25513SOL     OW88597   8.011   8.681   6.804
25513SOL    HW188598   7.917   8.693   6.775
25513SOL    HW288599   8.067   8.653   6.727
25514SOL     OW88600   7.546   8.066   6.701
25514SOL    HW188601   7.566   8.144   6.760
25514SOL    HW288602   7.558   8.093   6.605
25515SOL     OW88603   7.733   8.766   7.026
25515SOL    HW188604   7.777   8.846   7.067
25515SOL    HW288605   7.658   8.735   7.084
25516SOL     OW88606   9.038   9.049   7.301
25516SOL    HW188607   9.002   8.959   7.275
25516SOL    HW288608   8.993   9.120   7.248
25517SOL     OW88609   8.729   8.625   6.005
25517SOL    HW188610   8.820   8.631   6.044
25517SOL    HW288611   8.736   8.606   5.907
25518SOL     OW88612   8.042   7.738   5.999
25518SOL    HW188613   7.944   7.718   5.988
25518SOL    HW288614   8.069   7.720   6.094
25519SOL     OW88615   8.983   7.379   6.271
25519SOL    HW188616   8.974   7.397   6.173
25519SOL    HW288617   9.030   7.455   6.316
25520SOL     OW88618   8.539   8.155   6.955
25520SOL    HW188619   8.638   8.150   6.938
25520SOL    HW288620   8.496   8.208   6.883
25521SOL     OW88621   8.044   8.120   6.371
25521SOL    HW188622   8.063   8.047   6.436
25521SOL    HW288623   8.072   8.092   6.280
25522SOL     OW88624   8.678   8.793   6.566
25522SOL    HW188625   8.611   8.849   6.615
25522SOL    HW288626   8.701   8.838   6.480
25523SOL     OW88627   8.720   7.810   6.264
25523SOL    HW188628   8.701   7.805   6.166
25523SOL    HW288629   8.818   7.826   6.277
25524SOL     OW88630   8.464   8.819   8.130
25524SOL    HW188631   8.563   8.834   8.126
25524SOL    HW288632   8.424   8.838   8.040
25525SOL     OW88633   9.018   8.660   7.925
25525SOL    HW188634   9.032   8.730   7.995
25525SOL    HW288635   9.106   8.618   7.902
25526SOL     OW88636   9.014   8.029   8.762
25526SOL    HW188637   8.947   7.977   8.815
25526SOL    HW288638   9.061   8.094   8.821
25527SOL     OW88639   7.708   7.660   7.401
25527SOL    HW188640   7.625   7.655   7.344
25527SOL    HW288641   7.773   7.723   7.358
25528SOL     OW88642   8.741   8.903   8.139
25528SOL    HW188643   8.741   8.982   8.077
25528SOL    HW288644   8.832   8.861   8.140
25529SOL     OW88645   8.600   7.443   8.702
25529SOL    HW188646   8.520   7.404   8.749
25529SOL    HW288647   8.634   7.377   8.635
25530SOL     OW88648   8.341   8.306   9.117
25530SOL    HW188649   8.294   8.322   9.030
25530SOL    HW288650   8.276   8.313   9.192
25531SOL     OW88651   7.945   8.862   7.780
25531SOL    HW188652   7.895   8.889   7.861
25531SOL    HW288653   8.016   8.796   7.805
25532SOL     OW88654   7.946   7.525   7.460
25532SOL    HW188655   7.984   7.487   7.376
25532SOL    HW288656   7.856   7.564   7.442
25533SOL     OW88657   8.980   8.459   8.929
25533SOL    HW188658   8.885   8.483   8.907
25533SOL    HW288659   9.040   8.494   8.857
25534SOL     OW88660   8.870   8.419   8.628
25534SOL    HW188661   8.805   8.455   8.695
25534SOL    HW288662   8.961   8.456   8.647
25535SOL     OW88663   8.376   8.749   8.836
25535SOL    HW188664   8.291   8.803   8.836
25535SOL    HW288665   8.362   8.664   8.785
25536SOL     OW88666   7.855   8.614   8.021
25536SOL    HW188667   7.832   8.543   8.088
25536SOL    HW288668   7.951   8.605   7.996
25537SOL     OW88669   8.160   8.019   7.931
25537SOL    HW188670   8.178   8.103   7.879
25537SOL    HW288671   8.113   7.953   7.871
25538SOL     OW88672   8.636   7.919   9.113
25538SOL    HW188673   8.732   7.905   9.140
25538SOL    HW288674   8.581   7.842   9.144
25539SOL     OW88675   7.812   8.791   7.533
25539SOL    HW188676   7.871   8.801   7.453
25539SOL    HW288677   7.855   8.834   7.612
25540SOL     OW88678   7.998   7.700   8.435
25540SOL    HW188679   8.039   7.790   8.420
25540SOL    HW288680   8.050   7.630   8.387
25541SOL     OW88681   7.724   8.156   7.831
25541SOL    HW188682   7.779   8.155   7.914
25541SOL    HW288683   7.627   8.157   7.855
25542SOL     OW88684   8.198   9.104   7.978
25542SOL    HW188685   8.253   9.030   7.941
25542SOL    HW288686   8.216   9.188   7.926
25543SOL     OW88687   9.201   8.998   7.784
25543SOL    HW188688   9.294   8.970   7.759
25543SOL    HW288689   9.157   9.041   7.705
25544SOL     OW88690   9.075   7.714   8.487
25544SOL    HW188691   9.111   7.806   8.502
25544SOL    HW288692   8.975   7.717   8.485
25545SOL     OW88693   8.450   7.767   7.741
25545SOL    HW188694   8.500   7.853   7.753
25545SOL    HW288695   8.457   7.712   7.825
25546SOL     OW88696   7.544   8.387   8.992
25546SOL    HW188697   7.636   8.420   9.012
25546SOL    HW288698   7.501   8.355   9.076
25547SOL     OW88699   7.903   8.087   7.394
25547SOL    HW188700   7.878   8.184   7.398
25547SOL    HW288701   7.987   8.076   7.342
25548SOL     OW88702   8.040   8.989   8.163
25548SOL    HW188703   8.096   9.038   8.096
25548SOL    HW288704   7.963   8.946   8.116
25549SOL     OW88705   8.382   8.016   8.933
25549SOL    HW188706   8.434   7.961   8.999
25549SOL    HW288707   8.445   8.061   8.870
25550SOL     OW88708   9.018   8.827   8.160
25550SOL    HW188709   9.044   8.812   8.256
25550SOL    HW288710   9.081   8.893   8.119
25551SOL     OW88711   7.674   8.657   7.816
25551SOL    HW188712   7.734   8.642   7.895
25551SOL    HW288713   7.707   8.602   7.739
25552SOL     OW88714   8.612   7.714   7.527
25552SOL    HW188715   8.684   7.649   7.549
25552SOL    HW288716   8.553   7.726   7.607
25553SOL     OW88717   7.787   7.964   8.586
25553SOL    HW188718   7.787   7.867   8.614
25553SOL    HW288719   7.716   8.013   8.637
25554SOL     OW88720   8.799   8.157   8.651
25554SOL    HW188721   8.823   8.254   8.642
25554SOL    HW288722   8.877   8.108   8.690
25555SOL     OW88723   7.768   7.830   7.872
25555SOL    HW188724   7.692   7.829   7.937
25555SOL    HW288725   7.732   7.814   7.779
25556SOL     OW88726   8.835   9.125   8.691
25556SOL    HW188727   8.762   9.162   8.633
25556SOL    HW288728   8.865   9.037   8.655
25557SOL     OW88729   9.153   7.971   8.536
25557SOL    HW188730   9.239   8.022   8.536
25557SOL    HW288731   9.103   7.990   8.621
25558SOL     OW88732   8.343   7.855   8.045
25558SOL    HW188733   8.408   7.904   8.103
25558SOL    HW288734   8.287   7.920   7.994
25559SOL     OW88735   8.636   8.364   7.538
25559SOL    HW188736   8.656   8.325   7.628
25559SOL    HW288737   8.596   8.292   7.480
25560SOL     OW88738   8.467   7.724   9.205
25560SOL    HW188739   8.488   7.713   9.303
25560SOL    HW288740   8.368   7.718   9.191
25561SOL     OW88741   9.143   8.060   7.754
25561SOL    HW188742   9.095   7.972   7.759
25561SOL    HW288743   9.201   8.070   7.835
25562SOL     OW88744   8.381   9.115   7.525
25562SOL    HW188745   8.415   9.063   7.447
25562SOL    HW288746   8.412   9.072   7.610
25563SOL     OW88747   8.161   7.448   9.124
25563SOL    HW188748   8.181   7.353   9.102
25563SOL    HW288749   8.164   7.461   9.223
25564SOL     OW88750   9.072   8.074   8.297
25564SOL    HW188751   9.028   8.163   8.308
25564SOL    HW288752   9.089   8.034   8.387
25565SOL     OW88753   8.494   8.724   9.107
25565SOL    HW188754   8.537   8.634   9.101
25565SOL    HW288755   8.444   8.742   9.022
25566SOL     OW88756   8.110   8.558   9.109
25566SOL    HW188757   8.059   8.643   9.120
25566SOL    HW288758   8.132   8.521   9.200
25567SOL     OW88759   8.780   7.370   8.267
25567SOL    HW188760   8.731   7.457   8.275
25567SOL    HW288761   8.864   7.385   8.214
25568SOL     OW88762   9.146   7.601   9.182
25568SOL    HW188763   9.078   7.643   9.241
25568SOL    HW288764   9.199   7.534   9.233
25569SOL     OW88765   7.466   8.152   7.933
25569SOL    HW188766   7.477   8.109   8.023
25569SOL    HW288767   7.428   8.244   7.944
25570SOL     OW88768   7.589   7.681   8.273
25570SOL    HW188769   7.624   7.768   8.307
25570SOL    HW288770   7.659   7.610   8.286
25571SOL     OW88771   7.793   7.674   8.624
25571SOL    HW188772   7.777   7.577   8.641
25571SOL    HW288773   7.866   7.685   8.557
25572SOL     OW88774   8.367   8.181   8.307
25572SOL    HW188775   8.281   8.172   8.257
25572SOL    HW288776   8.436   8.122   8.266
25573SOL     OW88777   7.571   8.910   7.758
25573SOL    HW188778   7.611   8.819   7.766
25573SOL    HW288779   7.623   8.963   7.691
25574SOL     OW88780   8.856   8.857   8.610
25574SOL    HW188781   8.808   8.883   8.527
25574SOL    HW288782   8.791   8.814   8.674
25575SOL     OW88783   7.561   8.978   8.028
25575SOL    HW188784   7.465   8.984   8.057
25575SOL    HW288785   7.565   8.966   7.929
25576SOL     OW88786   9.125   8.790   8.657
25576SOL    HW188787   9.140   8.808   8.754
25576SOL    HW288788   9.032   8.819   8.632
25577SOL     OW88789   7.866   8.357   7.408
25577SOL    HW188790   7.840   8.404   7.324
25577SOL    HW288791   7.849   8.417   7.486
25578SOL     OW88792   8.325   8.521   8.685
25578SOL    HW188793   8.370   8.436   8.659
25578SOL    HW288794   8.262   8.549   8.612
25579SOL     OW88795   7.472   8.197   7.570
25579SOL    HW188796   7.556   8.142   7.572
25579SOL    HW288797   7.401   8.150   7.622
25580SOL     OW88798   8.977   8.279   7.786
25580SOL    HW188799   9.037   8.200   7.772
25580SOL    HW288800   8.999   8.350   7.719
25581SOL     OW88801   8.304   9.167   8.453
25581SOL    HW188802   8.303   9.089   8.389
25581SOL    HW288803   8.220   9.166   8.508
25582SOL     OW88804   8.141   8.329   7.442
25582SOL    HW188805   8.177   8.246   7.483
25582SOL    HW288806   8.041   8.321   7.432
25583SOL     OW88807   8.755   7.804   7.819
25583SOL    HW188808   8.711   7.876   7.764
25583SOL    HW288809   8.854   7.814   7.814
25584SOL     OW88810   7.683   7.965   8.949
25584SOL    HW188811   7.658   7.879   8.904
25584SOL    HW288812   7.644   7.967   9.041
25585SOL     OW88813   7.595   7.730   8.826
25585SOL    HW188814   7.665   7.708   8.757
25585SOL    HW288815   7.505   7.706   8.790
25586SOL     OW88816   8.389   8.274   8.561
25586SOL    HW188817   8.381   8.239   8.468
25586SOL    HW288818   8.319   8.233   8.619
25587SOL     OW88819   9.032   7.814   7.837
25587SOL    HW188820   9.113   7.755   7.835
25587SOL    HW288821   9.015   7.845   7.931
25588SOL     OW88822   8.282   8.941   8.295
25588SOL    HW188823   8.348   8.901   8.231
25588SOL    HW288824   8.193   8.948   8.251
25589SOL     OW88825   8.210   7.868   7.653
25589SOL    HW188826   8.135   7.819   7.697
25589SOL    HW288827   8.297   7.823   7.675
25590SOL     OW88828   8.372   8.693   7.528
25590SOL    HW188829   8.424   8.672   7.611
25590SOL    HW288830   8.430   8.679   7.448
25591SOL     OW88831   9.188   9.012   8.051
25591SOL    HW188832   9.176   9.108   8.075
25591SOL    HW288833   9.187   9.002   7.952
25592SOL     OW88834   8.598   8.310   8.001
25592SOL    HW188835   8.619   8.312   8.098
25592SOL    HW288836   8.508   8.352   7.985
25593SOL     OW88837   8.238   9.034   9.024
25593SOL    HW188838   8.200   8.973   8.954
25593SOL    HW288839   8.237   8.988   9.113
25594SOL     OW88840   8.697   8.321   8.255
25594SOL    HW188841   8.787   8.313   8.298
25594SOL    HW288842   8.638   8.379   8.312
25595SOL     OW88843   7.812   8.414   8.202
25595SOL    HW188844   7.714   8.392   8.204
25595SOL    HW288845   7.853   8.393   8.291
25596SOL     OW88846   8.350   8.417   7.925
25596SOL    HW188847   8.306   8.350   7.866
25596SOL    HW288848   8.285   8.451   7.992
25597SOL     OW88849   8.647   8.782   8.787
25597SOL    HW188850   8.677   8.862   8.838
25597SOL    HW288851   8.548   8.772   8.798
25598SOL     OW88852   7.427   7.710   7.819
25598SOL    HW188853   7.488   7.726   7.741
25598SOL    HW288854   7.469   7.746   7.902
25599SOL     OW88855   9.105   9.125   7.555
25599SOL    HW188856   9.179   9.192   7.554
25599SOL    HW288857   9.090   9.090   7.463
25600SOL     OW88858   8.222   8.173   8.757
25600SOL    HW188859   8.200   8.252   8.814
25600SOL    HW288860   8.270   8.105   8.812
25601SOL     OW88861   7.463   9.169   8.760
25601SOL    HW188862   7.402   9.247   8.748
25601SOL    HW288863   7.451   9.131   8.852
25602SOL     OW88864   8.198   8.243   7.779
25602SOL    HW188865   8.102   8.269   7.766
25602SOL    HW288866   8.232   8.201   7.695
25603SOL     OW88867   7.695   7.931   8.325
25603SOL    HW188868   7.769   7.919   8.259
25603SOL    HW288869   7.734   7.952   8.415
25604SOL     OW88870   7.693   9.128   7.618
25604SOL    HW188871   7.782   9.160   7.587
25604SOL    HW288872   7.679   9.155   7.713
25605SOL     OW88873   8.611   9.184   8.522
25605SOL    HW188874   8.516   9.199   8.496
25605SOL    HW288875   8.647   9.105   8.474
25606SOL     OW88876   8.141   7.542   7.649
25606SOL    HW188877   8.064   7.531   7.585
25606SOL    HW288878   8.113   7.603   7.723
25607SOL     OW88879   7.395   8.607   7.834
25607SOL    HW188880   7.486   8.646   7.849
25607SOL    HW288881   7.393   8.562   7.745
25608SOL     OW88882   8.985   7.666   8.952
25608SOL    HW188883   8.938   7.754   8.966
25608SOL    HW288884   9.045   7.648   9.030
25609SOL     OW88885   8.677   7.628   8.288
25609SOL    HW188886   8.694   7.691   8.211
25609SOL    HW288887   8.723   7.663   8.369
25610SOL     OW88888   8.800   7.510   7.563
25610SOL    HW188889   8.865   7.434   7.553
25610SOL    HW288890   8.747   7.497   7.647
25611SOL     OW88891   8.967   7.388   8.948
25611SOL    HW188892   8.956   7.356   8.854
25611SOL    HW288893   8.967   7.488   8.949
25612SOL     OW88894   8.109   7.719   8.094
25612SOL    HW188895   8.119   7.645   8.161
25612SOL    HW288896   8.197   7.766   8.084
25613SOL     OW88897   8.676   7.998   8.471
25613SOL    HW188898   8.672   8.046   8.384
25613SOL    HW288899   8.719   8.056   8.540
25614SOL     OW88900   8.949   7.452   7.841
25614SOL    HW188901   8.982   7.412   7.756
25614SOL    HW288902   8.852   7.474   7.832
25615SOL     OW88903   7.982   8.801   9.166
25615SOL    HW188904   7.934   8.862   9.104
25615SOL    HW288905   8.065   8.845   9.199
25616SOL     OW88906   7.800   8.471   9.028
25616SOL    HW188907   7.849   8.424   8.955
25616SOL    HW288908   7.797   8.569   9.009
25617SOL     OW88909   8.522   7.966   8.216
25617SOL    HW188910   8.603   7.921   8.176
25617SOL    HW288911   8.494   7.917   8.298
25618SOL     OW88912   9.128   8.005   9.091
25618SOL    HW188913   9.121   8.086   9.033
25618SOL    HW288914   9.224   7.980   9.103
25619SOL     OW88915   8.798   7.750   8.503
25619SOL    HW188916   8.760   7.842   8.494
25619SOL    HW288917   8.783   7.716   8.596
25620SOL     OW88918   8.900   7.870   9.173
25620SOL    HW188919   8.981   7.921   9.144
25620SOL    HW288920   8.925   7.808   9.248
25621SOL     OW88921   8.709   8.237   7.770
25621SOL    HW188922   8.664   8.264   7.855
25621SOL    HW288923   8.807   8.251   7.777
25622SOL     OW88924   8.932   8.339   8.048
25622SOL    HW188925   8.944   8.322   7.950
25622SOL    HW288926   8.837   8.320   8.073
25623SOL     OW88927   9.130   8.223   8.914
25623SOL    HW188928   9.067   8.301   8.913
25623SOL    HW288929   9.224   8.256   8.923
25624SOL     OW88930   8.997   7.711   7.560
25624SOL    HW188931   9.017   7.741   7.653
25624SOL    HW288932   8.927   7.639   7.563
25625SOL     OW88933   8.129   8.886   8.814
25625SOL    HW188934   8.067   8.964   8.803
25625SOL    HW288935   8.094   8.808   8.762
25626SOL     OW88936   7.533   7.672   9.099
25626SOL    HW188937   7.548   7.685   9.001
25626SOL    HW288938   7.438   7.647   9.115
25627SOL     OW88939   7.432   9.078   9.022
25627SOL    HW188940   7.518   9.095   9.069
25627SOL    HW288941   7.356   9.105   9.081
25628SOL     OW88942   7.548   7.819   8.039
25628SOL    HW188943   7.522   7.909   8.077
25628SOL    HW288944   7.563   7.755   8.113
25629SOL     OW88945   8.745   8.997   8.918
25629SOL    HW188946   8.693   9.058   8.978
25629SOL    HW288947   8.786   9.049   8.844
25630SOL     OW88948   7.703   8.043   7.581
25630SOL    HW188949   7.782   8.053   7.521
25630SOL    HW288950   7.725   8.080   7.671
25631SOL     OW88951   9.162   7.615   8.741
25631SOL    HW188952   9.092   7.645   8.806
25631SOL    HW288953   9.134   7.639   8.648
25632SOL     OW88954   7.724   9.155   8.169
25632SOL    HW188955   7.655   9.108   8.114
25632SOL    HW288956   7.810   9.158   8.119
25633SOL     OW88957   7.780   8.572   8.702
25633SOL    HW188958   7.764   8.635   8.777
25633SOL    HW288959   7.693   8.532   8.673
25634SOL     OW88960   8.556   8.971   9.236
25634SOL    HW188961   8.538   8.883   9.191
25634SOL    HW288962   8.573   9.041   9.166
25635SOL     OW88963   8.135   8.675   7.859
25635SOL    HW188964   8.149   8.621   7.776
25635SOL    HW288965   8.153   8.618   7.939
25636SOL     OW88966   7.863   8.181   8.061
25636SOL    HW188967   7.846   8.269   8.105
25636SOL    HW288968   7.938   8.134   8.107
25637SOL     OW88969   7.625   7.786   7.633
25637SOL    HW188970   7.654   7.727   7.558
25637SOL    HW288971   7.643   7.881   7.609
25638SOL     OW88972   7.488   8.055   8.188
25638SOL    HW188973   7.399   8.059   8.234
25638SOL    HW288974   7.556   8.016   8.251
25639SOL     OW88975   7.880   8.543   7.619
25639SOL    HW188976   7.979   8.550   7.623
25639SOL    HW288977   7.842   8.629   7.584
25640SOL     OW88978   8.525   8.112   7.429
25640SOL    HW188979   8.470   8.169   7.368
25640SOL    HW288980   8.583   8.052   7.374
25641SOL     OW88981   8.270   8.112   7.551
25641SOL    HW188982   8.363   8.106   7.514
25641SOL    HW288983   8.239   8.022   7.579
25642SOL     OW88984   8.685   7.541   7.814
25642SOL    HW188985   8.603   7.529   7.869
25642SOL    HW288986   8.713   7.637   7.816
25643SOL     OW88987   8.806   7.899   8.879
25643SOL    HW188988   8.742   7.927   8.950
25643SOL    HW288989   8.769   7.821   8.829
25644SOL     OW88990   9.044   8.446   7.582
25644SOL    HW188991   9.141   8.466   7.592
25644SOL    HW288992   9.023   8.429   7.486
25645SOL     OW88993   8.029   8.112   8.562
25645SOL    HW188994   8.080   8.129   8.646
25645SOL    HW288995   7.944   8.064   8.585
25646SOL     OW88996   8.189   8.410   8.897
25646SOL    HW188997   8.240   8.465   8.831
25646SOL    HW288998   8.160   8.469   8.973
25647SOL     OW88999   8.566   8.455   9.053
25647SOL    HW189000   8.481   8.407   9.077
25647SOL    HW289001   8.644   8.401   9.082
25648SOL     OW89002   8.463   7.617   7.987
25648SOL    HW189003   8.418   7.704   8.009
25648SOL    HW289004   8.455   7.554   8.064
25649SOL     OW89005   8.593   9.178   9.055
25649SOL    HW189006   8.519   9.201   8.993
25649SOL    HW289007   8.633   9.261   9.093
25650SOL     OW89008   8.164   7.528   8.282
25650SOL    HW189009   8.137   7.433   8.295
25650SOL    HW289010   8.263   7.534   8.272
25651SOL     OW89011   7.724   9.177   8.668
25651SOL    HW189012   7.721   9.130   8.579
25651SOL    HW289013   7.634   9.171   8.711
25652SOL     OW89014   8.352   8.601   8.261
25652SOL    HW189015   8.393   8.680   8.215
25652SOL    HW289016   8.422   8.550   8.310
25653SOL     OW89017   8.039   8.308   8.366
25653SOL    HW189018   8.069   8.250   8.289
25653SOL    HW289019   8.029   8.252   8.448
25654SOL     OW89020   8.123   8.031   9.054
25654SOL    HW189021   8.058   8.050   8.981
25654SOL    HW289022   8.216   8.026   9.017
25655SOL     OW89023   7.438   8.474   7.598
25655SOL    HW189024   7.467   8.378   7.590
25655SOL    HW289025   7.497   8.531   7.541
25656SOL     OW89026   9.134   7.659   8.212
25656SOL    HW189027   9.130   7.665   8.312
25656SOL    HW289028   9.229   7.663   8.182
25657SOL     OW89029   8.162   8.544   8.458
25657SOL    HW189030   8.117   8.461   8.426
25657SOL    HW289031   8.226   8.577   8.388
25658SOL     OW89032   8.607   7.999   7.689
25658SOL    HW189033   8.641   8.085   7.727
25658SOL    HW289034   8.576   8.014   7.595
25659SOL     OW89035   8.901   8.796   9.030
25659SOL    HW189036   8.856   8.725   9.085
25659SOL    HW289037   8.832   8.856   8.990
25660SOL     OW89038   7.604   8.186   8.817
25660SOL    HW189039   7.631   8.109   8.875
25660SOL    HW289040   7.594   8.268   8.873
25661SOL     OW89041   8.205   8.870   7.394
25661SOL    HW189042   8.156   8.924   7.462
25661SOL    HW289043   8.270   8.809   7.440
25662SOL     OW89044   7.984   9.101   8.404
25662SOL    HW189045   8.006   9.050   8.321
25662SOL    HW289046   7.892   9.078   8.434
25663SOL     OW89047   8.153   8.521   8.092
25663SOL    HW189048   8.222   8.556   8.155
25663SOL    HW289049   8.089   8.463   8.141
25664SOL     OW89050   8.333   8.876   7.893
25664SOL    HW189051   8.402   8.880   7.821
25664SOL    HW289052   8.267   8.805   7.873
25665SOL     OW89053   7.552   8.334   8.180
25665SOL    HW189054   7.539   8.234   8.184
25665SOL    HW289055   7.482   8.373   8.120
25666SOL     OW89056   7.417   8.293   9.204
25666SOL    HW189057   7.318   8.303   9.205
25666SOL    HW289058   7.447   8.253   9.291
25667SOL     OW89059   8.380   9.222   8.880
25667SOL    HW189060   8.339   9.147   8.931
25667SOL    HW289061   8.308   9.273   8.833
25668SOL     OW89062   8.537   8.473   8.425
25668SOL    HW189063   8.572   8.540   8.490
25668SOL    HW289064   8.489   8.401   8.475
25669SOL     OW89065   7.919   7.780   9.176
25669SOL    HW189066   7.992   7.761   9.110
25669SOL    HW289067   7.919   7.878   9.197
25670SOL     OW89068   7.938   8.303   7.738
25670SOL    HW189069   7.905   8.390   7.702
25670SOL    HW289070   7.861   8.249   7.771
25671SOL     OW89071   8.947   8.325   8.377
25671SOL    HW189072   8.979   8.404   8.325
25671SOL    HW289073   8.921   8.353   8.469
25672SOL     OW89074   8.757   7.656   8.759
25672SOL    HW189075   8.825   7.628   8.826
25672SOL    HW289076   8.695   7.580   8.741
25673SOL     OW89077   7.344   7.445   7.920
25673SOL    HW189078   7.251   7.440   7.882
25673SOL    HW289079   7.389   7.528   7.886
25674SOL     OW89080   8.654   7.521   9.160
25674SOL    HW189081   8.707   7.513   9.244
25674SOL    HW289082   8.588   7.595   9.169
25675SOL     OW89083   7.836   8.977   9.011
25675SOL    HW189084   7.775   9.038   9.061
25675SOL    HW289085   7.883   9.027   8.939
25676SOL     OW89086   9.151   8.821   8.926
25676SOL    HW189087   9.166   8.920   8.916
25676SOL    HW289088   9.062   8.806   8.969
25677SOL     OW89089   8.428   7.869   8.462
25677SOL    HW189090   8.508   7.921   8.491
25677SOL    HW289091   8.431   7.778   8.502
25678SOL     OW89092   7.822   8.884   8.033
25678SOL    HW189093   7.826   8.785   8.038
25678SOL    HW289094   7.727   8.914   8.037
25679SOL     OW89095   8.451   8.867   8.501
25679SOL    HW189096   8.380   8.886   8.432
25679SOL    HW289097   8.415   8.888   8.592
25680SOL     OW89098   7.665   9.147   9.159
25680SOL    HW189099   7.664   9.247   9.159
25680SOL    HW289100   7.688   9.114   9.251
25681SOL     OW89101   7.499   8.669   9.023
25681SOL    HW189102   7.486   8.573   8.997
25681SOL    HW289103   7.419   8.722   8.997
25682SOL     OW89104   7.704   9.050   8.420
25682SOL    HW189105   7.686   8.952   8.409
25682SOL    HW289106   7.709   9.093   8.330
25683SOL     OW89107   8.435   7.506   8.250
25683SOL    HW189108   8.522   7.553   8.269
25683SOL    HW289109   8.429   7.424   8.307
25684SOL     OW89110   8.479   8.619   7.776
25684SOL    HW189111   8.572   8.635   7.811
25684SOL    HW289112   8.437   8.544   7.826
25685SOL     OW89113   9.001   7.877   8.109
25685SOL    HW189114   9.024   7.957   8.165
25685SOL    HW289115   9.047   7.796   8.144
25686SOL     OW89116   8.154   8.551   7.611
25686SOL    HW189117   8.230   8.609   7.582
25686SOL    HW289118   8.160   8.462   7.565
25687SOL     OW89119   8.301   7.524   7.417
25687SOL    HW189120   8.339   7.435   7.443
25687SOL    HW289121   8.254   7.565   7.495
25688SOL     OW89122   7.882   7.873   8.133
25688SOL    HW189123   7.965   7.817   8.133
25688SOL    HW289124   7.849   7.884   8.039
25689SOL     OW89125   7.926   8.361   8.812
25689SOL    HW189126   8.021   8.386   8.829
25689SOL    HW289127   7.883   8.431   8.754
25690SOL     OW89128   9.114   8.521   8.694
25690SOL    HW189129   9.122   8.619   8.678
25690SOL    HW289130   9.182   8.472   8.639
25691SOL     OW89131   7.596   8.639   7.450
25691SOL    HW189132   7.569   8.659   7.356
25691SOL    HW289133   7.665   8.705   7.480
25692SOL     OW89134   8.045   8.998   7.567
25692SOL    HW189135   7.998   9.085   7.553
25692SOL    HW289136   8.017   8.959   7.654
25693SOL     OW89137   8.724   8.525   8.836
25693SOL    HW189138   8.662   8.491   8.906
25693SOL    HW289139   8.702   8.621   8.815
25694SOL     OW89140   7.959   9.110   8.801
25694SOL    HW189141   8.021   9.188   8.796
25694SOL    HW289142   7.875   9.131   8.750
25695SOL     OW89143   7.546   7.934   9.189
25695SOL    HW189144   7.543   7.835   9.173
25695SOL    HW289145   7.599   7.954   9.271
25696SOL     OW89146   7.354   8.393   7.997
25696SOL    HW189147   7.370   8.473   7.940
25696SOL    HW289148   7.256   8.384   8.014
25697SOL     OW89149   7.927   8.089   8.875
25697SOL    HW189150   7.840   8.048   8.902
25697SOL    HW289151   7.912   8.184   8.848
25698SOL     OW89152   9.003   8.543   8.212
25698SOL    HW189153   8.985   8.634   8.177
25698SOL    HW289154   8.976   8.475   8.144
25699SOL     OW89155   8.156   7.931   8.397
25699SOL    HW189156   8.252   7.915   8.420
25699SOL    HW289157   8.117   7.998   8.461
25700SOL     OW89158   8.032   8.681   8.660
25700SOL    HW189159   7.938   8.648   8.668
25700SOL    HW289160   8.075   8.641   8.579
25701SOL     OW89161   7.745   8.728   8.925
25701SOL    HW189162   7.781   8.818   8.950
25701SOL    HW289163   7.652   8.718   8.960
25702SOL     OW89164   8.915   9.004   9.210
25702SOL    HW189165   8.920   8.923   9.151
25702SOL    HW289166   8.962   9.081   9.166
25703SOL     OW89167   8.752   8.650   7.841
25703SOL    HW189168   8.845   8.646   7.878
25703SOL    HW289169   8.754   8.624   7.744
25704SOL     OW89170   8.033   7.751   7.832
25704SOL    HW189171   7.936   7.774   7.834
25704SOL    HW289172   8.063   7.726   7.924
25705SOL     OW89173   8.993   7.444   8.109
25705SOL    HW189174   8.980   7.456   8.011
25705SOL    HW289175   9.045   7.522   8.145
25706SOL     OW89176   8.542   8.137   8.753
25706SOL    HW189177   8.641   8.138   8.738
25706SOL    HW289178   8.497   8.190   8.681
25707SOL     OW89179   8.119   8.110   8.186
25707SOL    HW189180   8.121   8.032   8.249
25707SOL    HW289181   8.134   8.077   8.093
25708SOL     OW89182   8.693   8.944   8.408
25708SOL    HW189183   8.606   8.907   8.438
25708SOL    HW289184   8.705   8.927   8.310
25709SOL     OW89185   8.731   7.825   8.099
25709SOL    HW189186   8.715   7.811   8.001
25709SOL    HW289187   8.826   7.850   8.114
25710SOL     OW89188   8.549   8.877   9.974
25710SOL    HW189189   8.610   8.798   9.967
25710SOL    HW289190   8.474   8.867   9.909
25711SOL     OW89191   8.963   8.647   9.800
25711SOL    HW189192   8.987   8.730   9.850
25711SOL    HW289193   9.047   8.602   9.769
25712SOL     OW89194   7.752   7.577   9.229
25712SOL    HW189195   7.666   7.601   9.182
25712SOL    HW289196   7.821   7.646   9.209
25713SOL     OW89197   7.937   8.886   9.622
25713SOL    HW189198   7.892   8.915   9.707
25713SOL    HW289199   8.011   8.823   9.644
25714SOL     OW89200   7.917   7.402   9.367
25714SOL    HW189201   8.008   7.442   9.383
25714SOL    HW289202   7.862   7.464   9.312
25715SOL     OW89203   7.813   8.626   9.890
25715SOL    HW189204   7.752   8.621   9.969
25715SOL    HW289205   7.906   8.599   9.918
25716SOL     OW89206   8.083   8.053   9.836
25716SOL    HW189207   8.115   8.130   9.781
25716SOL    HW289208   8.055   7.978   9.775
25717SOL     OW89209   7.817   8.784   9.385
25717SOL    HW189210   7.877   8.797   9.306
25717SOL    HW289211   7.855   8.833   9.463
25718SOL     OW89212   7.674   8.156   9.654
25718SOL    HW189213   7.697   8.073   9.705
25718SOL    HW289214   7.610   8.211   9.707
25719SOL     OW89215   8.350   9.130   9.849
25719SOL    HW189216   8.352   9.031   9.833
25719SOL    HW289217   8.285   9.173   9.787
25720SOL     OW89218   8.381   7.735   9.686
25720SOL    HW189219   8.377   7.822   9.736
25720SOL    HW289220   8.390   7.660   9.752
25721SOL     OW89221   7.921   8.061   9.236
25721SOL    HW189222   7.896   8.157   9.242
25721SOL    HW289223   8.002   8.051   9.178
25722SOL     OW89224   9.067   8.885   9.925
25722SOL    HW189225   9.047   8.960   9.987
25722SOL    HW289226   9.163   8.890   9.896
25723SOL     OW89227   7.677   8.657   9.657
25723SOL    HW189228   7.730   8.646   9.741
25723SOL    HW289229   7.722   8.605   9.583
25724SOL     OW89230   8.534   7.694   9.463
25724SOL    HW189231   8.624   7.729   9.487
25724SOL    HW289232   8.472   7.705   9.542
25725SOL     OW89233   7.761   7.778   9.716
25725SOL    HW189234   7.734   7.736   9.802
25725SOL    HW289235   7.717   7.731   9.640
25726SOL     OW89236   8.352   7.955   9.840
25726SOL    HW189237   8.425   8.014   9.875
25726SOL    HW289238   8.264   8.000   9.854
25727SOL     OW89239   8.616   8.347   9.377
25727SOL    HW189240   8.637   8.310   9.468
25727SOL    HW289241   8.574   8.275   9.321
25728SOL     OW89242   9.128   8.055   9.559
25728SOL    HW189243   9.074   7.972   9.547
25728SOL    HW289244   9.188   8.045   9.639
25729SOL     OW89245   8.388   9.123   9.399
25729SOL    HW189246   8.436   9.068   9.331
25729SOL    HW289247   8.400   9.081   9.489
25730SOL     OW89248   7.449   7.995   9.767
25730SOL    HW189249   7.454   7.957   9.860
25730SOL    HW289250   7.455   8.095   9.772
25731SOL     OW89251   7.586   8.906   9.570
25731SOL    HW189252   7.616   8.814   9.593
25731SOL    HW289253   7.647   8.946   9.501
25732SOL     OW89254   7.571   9.008   9.827
25732SOL    HW189255   7.476   9.003   9.858
25732SOL    HW289256   7.575   8.984   9.730
25733SOL     OW89257   7.881   8.337   9.254
25733SOL    HW189258   7.852   8.382   9.170
25733SOL    HW289259   7.862   8.398   9.332
25734SOL     OW89260   7.485   8.211   9.454
25734SOL    HW189261   7.562   8.193   9.515
25734SOL    HW289262   7.407   8.154   9.480
25735SOL     OW89263   8.959   8.259   9.624
25735SOL    HW189264   9.021   8.186   9.596
25735SOL    HW289265   8.975   8.339   9.566
25736SOL     OW89266   8.151   8.310   9.315
25736SOL    HW189267   8.178   8.221   9.352
25736SOL    HW289268   8.054   8.308   9.290
25737SOL     OW89269   8.754   7.804   9.600
25737SOL    HW189270   8.714   7.883   9.554
25737SOL    HW289271   8.854   7.810   9.597
25738SOL     OW89272   9.029   7.797   9.624
25738SOL    HW189273   9.126   7.778   9.612
25738SOL    HW289274   9.010   7.817   9.721
25739SOL     OW89275   8.213   7.788   9.473
25739SOL    HW189276   8.127   7.815   9.517
25739SOL    HW289277   8.283   7.775   9.543
25740SOL     OW89278   8.355   8.701   9.358
25740SOL    HW189279   8.406   8.679   9.441
25740SOL    HW289280   8.417   8.701   9.280
25741SOL     OW89281   8.566   8.374   9.826
25741SOL    HW189282   8.620   8.455   9.805
25741SOL    HW289283   8.469   8.394   9.812
25742SOL     OW89284   8.864   8.404   0.006
25742SOL    HW189285   8.775   8.396   0.051
25742SOL    HW289286   8.865   8.486   9.948
25743SOL     OW89287   8.303   8.433   9.766
25743SOL    HW189288   8.260   8.356   9.719
25743SOL    HW289289   8.236   8.477   9.826
25744SOL     OW89290   7.441   7.754   9.634
25744SOL    HW189291   7.509   7.744   9.561
25744SOL    HW289292   7.455   7.842   9.680
25745SOL     OW89293   8.171   8.226   9.639
25745SOL    HW189294   8.077   8.250   9.615
25745SOL    HW289295   8.211   8.172   9.565
25746SOL     OW89296   7.751   9.121   9.419
25746SOL    HW189297   7.829   9.180   9.397
25746SOL    HW289298   7.705   9.157   9.500
25747SOL     OW89299   7.416   8.534   9.717
25747SOL    HW189300   7.486   8.601   9.743
25747SOL    HW289301   7.417   8.520   9.618
25748SOL     OW89302   8.794   7.476   9.395
25748SOL    HW189303   8.812   7.378   9.383
25748SOL    HW289304   8.750   7.490   9.484
25749SOL     OW89305   9.000   7.443   9.642
25749SOL    HW189306   9.018   7.392   9.557
25749SOL    HW289307   8.907   7.478   9.640
25750SOL     OW89308   8.688   8.241   9.618
25750SOL    HW189309   8.642   8.284   9.697
25750SOL    HW289310   8.787   8.247   9.630
25751SOL     OW89311   9.043   8.229   9.884
25751SOL    HW189312   9.008   8.238   9.791
25751SOL    HW289313   8.984   8.280   9.947
25752SOL     OW89314   8.967   7.689   9.370
25752SOL    HW189315   8.991   7.719   9.462
25752SOL    HW289316   8.906   7.611   9.375
25753SOL     OW89317   7.721   7.974   9.406
25753SOL    HW189318   7.798   7.998   9.347
25753SOL    HW289319   7.716   8.040   9.482
25754SOL     OW89320   7.706   9.223   9.938
25754SOL    HW189321   7.651   9.156   9.889
25754SOL    HW289322   7.790   9.179   9.970
25755SOL     OW89323   8.129   8.704   9.692
25755SOL    HW189324   8.146   8.643   9.615
25755SOL    HW289325   8.111   8.650   9.774
25756SOL     OW89326   7.649   7.714   9.454
25756SOL    HW189327   7.693   7.655   9.387
25756SOL    HW289328   7.677   7.809   9.439
25757SOL     OW89329   7.471   7.928   0.029
25757SOL    HW189330   7.447   8.016   0.071
25757SOL    HW289331   7.557   7.895   0.068
25758SOL     OW89332   7.878   8.531   9.464
25758SOL    HW189333   7.977   8.539   9.471
25758SOL    HW289334   7.840   8.615   9.426
25759SOL     OW89335   8.497   8.118   9.251
25759SOL    HW189336   8.444   8.179   9.192
25759SOL    HW289337   8.553   8.058   9.194
25760SOL     OW89338   8.264   8.075   9.416
25760SOL    HW189339   8.350   8.086   9.366
25760SOL    HW289340   8.241   7.978   9.422
25761SOL     OW89341   8.742   7.536   9.663
25761SOL    HW189342   8.692   7.512   9.747
25761SOL    HW289343   8.738   7.635   9.649
25762SOL     OW89344   7.468   7.480   9.407
25762SOL    HW189345   7.538   7.408   9.411
25762SOL    HW289346   7.510   7.568   9.427
25763SOL     OW89347   9.016   8.442   9.431
25763SOL    HW189348   9.114   8.456   9.446
25763SOL    HW289349   8.999   8.430   9.333
25764SOL     OW89350   7.620   7.342   9.683
25764SOL    HW189351   7.570   7.415   9.728
25764SOL    HW289352   7.597   7.254   9.726
25765SOL     OW89353   7.451   8.488   9.453
25765SOL    HW189354   7.479   8.393   9.440
25765SOL    HW289355   7.505   8.547   9.392
25766SOL     OW89356   9.099   7.619   0.018
25766SOL    HW189357   9.068   7.645   0.110
25766SOL    HW289358   9.195   7.593   0.021
25767SOL     OW89359   8.639   8.014   9.479
25767SOL    HW189360   8.654   8.093   9.537
25767SOL    HW289361   8.584   8.040   9.400
25768SOL     OW89362   8.205   8.914   9.269
25768SOL    HW189363   8.179   8.975   9.343
25768SOL    HW289364   8.263   8.841   9.305
25769SOL     OW89365   8.096   8.558   9.928
25769SOL    HW189366   8.122   8.638   9.981
25769SOL    HW289367   8.104   8.476   9.984
25770SOL     OW89368   8.354   8.862   9.777
25770SOL    HW189369   8.413   8.864   9.697
25770SOL    HW289370   8.271   8.810   9.756
25771SOL     OW89371   7.911   8.287   9.589
25771SOL    HW189372   7.891   8.377   9.551
25771SOL    HW289373   7.826   8.241   9.613
25772SOL     OW89374   7.481   7.545   9.807
25772SOL    HW189375   7.397   7.514   9.851
25772SOL    HW289376   7.459   7.615   9.739
25773SOL     OW89377   7.817   8.904   9.882
25773SOL    HW189378   7.815   8.804   9.879
25773SOL    HW289379   7.724   8.940   9.870
25774SOL     OW89380   8.446   8.608   9.602
25774SOL    HW189381   8.535   8.619   9.645
25774SOL    HW289382   8.390   8.546   9.656
25775SOL     OW89383   9.012   7.850   9.893
25775SOL    HW189384   9.071   7.921   9.933
25775SOL    HW289385   9.034   7.762   9.934
25776SOL     OW89386   8.151   8.548   9.458
25776SOL    HW189387   8.223   8.608   9.424
25776SOL    HW289388   8.167   8.455   9.425
25777SOL     OW89389   8.170   7.504   9.394
25777SOL    HW189390   8.245   7.440   9.412
25777SOL    HW289391   8.199   7.597   9.419
25778SOL     OW89392   7.596   8.644   9.287
25778SOL    HW189393   7.566   8.663   9.193
25778SOL    HW289394   7.668   8.708   9.313
25779SOL     OW89395   8.079   9.063   9.468
25779SOL    HW189396   8.022   9.134   9.427
25779SOL    HW289397   8.022   9.003   9.524
25780SOL     OW89398   7.452   8.270   9.791
25780SOL    HW189399   7.448   8.366   9.766
25780SOL    HW289400   7.370   8.245   9.842
25781SOL     OW89401   8.708   8.585   9.714
25781SOL    HW189402   8.794   8.614   9.758
25781SOL    HW289403   8.722   8.577   9.616
25782SOL     OW89404   8.021   7.838   9.670
25782SOL    HW189405   7.922   7.826   9.678
25782SOL    HW289406   8.068   7.766   9.721
25783SOL     OW89407   9.002   7.389   9.908
25783SOL    HW189408   9.002   7.401   9.808
25783SOL    HW289409   9.027   7.474   9.952
25784SOL     OW89410   8.755   7.947   9.845
25784SOL    HW189411   8.735   7.895   9.762
25784SOL    HW289412   8.847   7.925   9.877
25785SOL     OW89413   7.798   9.474   0.031
25785SOL    HW189414   7.768   9.409   9.962
25785SOL    HW289415   7.852   9.546   9.988
25786SOL     OW89416   8.611   9.231   1.308
25786SOL    HW189417   8.519   9.195   1.325
25786SOL    HW289418   8.653   9.182   1.232
25787SOL     OW89419   7.933   9.248   0.139
25787SOL    HW189420   8.028   9.278   0.149
25787SOL    HW289421   7.876   9.326   0.113
25788SOL     OW89422   8.161   9.828   0.570
25788SOL    HW189423   8.165   9.909   0.511
25788SOL    HW289424   8.121   9.752   0.519
25789SOL     OW89425   7.840   9.473   1.006
25789SOL    HW189426   7.881   9.564   1.002
25789SOL    HW289427   7.896   9.409   0.952
25790SOL     OW89428   8.482   9.537   0.300
25790SOL    HW189429   8.519   9.629   0.313
25790SOL    HW289430   8.491   9.485   0.385
25791SOL     OW89431   7.797   9.833   0.087
25791SOL    HW189432   7.838   9.924   0.094
25791SOL    HW289433   7.860   9.772   0.039
25792SOL     OW89434   8.612   9.457   0.066
25792SOL    HW189435   8.647   9.543   0.031
25792SOL    HW289436   8.559   9.474   0.150
25793SOL     OW89437   7.714   9.726   1.124
25793SOL    HW189438   7.700   9.643   1.178
25793SOL    HW289439   7.643   9.792   1.145
25794SOL     OW89440   8.835   0.152   1.219
25794SOL    HW189441   8.829   0.223   1.149
25794SOL    HW289442   8.931   0.133   1.241
25795SOL     OW89443   7.796   9.539   0.459
25795SOL    HW189444   7.741   9.572   0.536
25795SOL    HW289445   7.754   9.567   0.373
25796SOL     OW89446   8.413   9.715   0.587
25796SOL    HW189447   8.465   9.726   0.672
25796SOL    HW289448   8.324   9.758   0.597
25797SOL     OW89449   8.505   9.623   1.827
25797SOL    HW189450   8.537   9.580   1.911
25797SOL    HW289451   8.408   9.603   1.815
25798SOL     OW89452   9.142   9.893   0.213
25798SOL    HW189453   9.214   9.846   0.264
25798SOL    HW289454   9.072   9.926   0.277
25799SOL     OW89455   8.182   9.280   1.708
25799SOL    HW189456   8.195   9.185   1.679
25799SOL    HW289457   8.190   9.286   1.807
25800SOL     OW89458   8.763   9.211   0.846
25800SOL    HW189459   8.714   9.297   0.857
25800SOL    HW289460   8.848   9.227   0.796
25801SOL     OW89461   7.608   9.411   0.861
25801SOL    HW189462   7.676   9.443   0.928
25801SOL    HW289463   7.641   9.327   0.817
25802SOL     OW89464   7.713   9.442   1.242
25802SOL    HW189465   7.698   9.345   1.261
25802SOL    HW289466   7.764   9.452   1.156
25803SOL     OW89467   8.804   9.716   0.374
25803SOL    HW189468   8.712   9.751   0.360
25803SOL    HW289469   8.850   9.705   0.286
25804SOL     OW89470   7.615   9.839   1.483
25804SOL    HW189471   7.596   9.747   1.448
25804SOL    HW289472   7.608   9.839   1.583
25805SOL     OW89473   7.555   9.567   1.429
25805SOL    HW189474   7.621   9.523   1.368
25805SOL    HW289475   7.463   9.538   1.404
25806SOL     OW89476   8.222   9.608   0.271
25806SOL    HW189477   8.168   9.594   0.354
25806SOL    HW289478   8.317   9.584   0.289
25807SOL     OW89479   8.314   0.247   0.504
25807SOL    HW189480   8.274   0.167   0.459
25807SOL    HW289481   8.268   0.262   0.591
25808SOL     OW89482   7.464   9.561   0.435
25808SOL    HW189483   7.522   9.570   0.354
25808SOL    HW289484   7.517   9.582   0.517
25809SOL     OW89485   7.761   9.862   0.892
25809SOL    HW189486   7.848   9.833   0.851
25809SOL    HW289487   7.747   9.812   0.978
25810SOL     OW89488   8.144   9.296   0.450
25810SOL    HW189489   8.155   9.288   0.351
25810SOL    HW289490   8.116   9.389   0.473
25811SOL     OW89491   8.634   9.466   0.907
25811SOL    HW189492   8.624   9.551   0.855
25811SOL    HW289493   8.651   9.487   1.003
25812SOL     OW89494   8.793   9.254   0.117
25812SOL    HW189495   8.743   9.169   0.129
25812SOL    HW289496   8.729   9.328   0.095
25813SOL     OW89497   9.016   9.243   1.516
25813SOL    HW189498   8.983   9.184   1.442
25813SOL    HW289499   8.950   9.316   1.531
25814SOL     OW89500   8.114   9.529   0.769
25814SOL    HW189501   8.058   9.448   0.788
25814SOL    HW289502   8.210   9.506   0.786
25815SOL     OW89503   8.978   9.304   0.443
25815SOL    HW189504   8.964   9.214   0.400
25815SOL    HW289505   8.891   9.352   0.450
25816SOL     OW89506   8.567   9.733   0.815
25816SOL    HW189507   8.630   9.810   0.813
25816SOL    HW289508   8.520   9.730   0.903
25817SOL     OW89509   8.683   9.586   1.175
25817SOL    HW189510   8.765   9.643   1.171
25817SOL    HW289511   8.681   9.537   1.262
25818SOL     OW89512   8.999   9.434   0.191
25818SOL    HW189513   9.019   9.408   0.285
25818SOL    HW289514   8.923   9.378   0.156
25819SOL     OW89515   7.530   9.508   1.702
25819SOL    HW189516   7.538   9.528   1.605
25819SOL    HW289517   7.434   9.490   1.725
25820SOL     OW89518   7.616   9.597   0.656
25820SOL    HW189519   7.588   9.688   0.687
25820SOL    HW289520   7.610   9.533   0.731
25821SOL     OW89521   7.560   9.854   0.206
25821SOL    HW189522   7.648   9.850   0.158
25821SOL    HW289523   7.576   9.878   0.301
25822SOL     OW89524   7.642   9.582   0.226
25822SOL    HW189525   7.709   9.551   0.158
25822SOL    HW289526   7.613   9.675   0.204
25823SOL     OW89527   7.538   9.845   0.735
25823SOL    HW189528   7.453   9.845   0.788
25823SOL    HW289529   7.616   9.860   0.796
25824SOL     OW89530   8.504   9.855   0.049
25824SOL    HW189531   8.519   9.946   0.009
25824SOL    HW289532   8.581   9.796   0.027
25825SOL     OW89533   8.261   9.871   0.183
25825SOL    HW189534   8.347   9.866   0.132
25825SOL    HW289535   8.230   9.779   0.206
25826SOL     OW89536   8.757   9.454   0.474
25826SOL    HW189537   8.666   9.448   0.514
25826SOL    HW289538   8.777   9.549   0.449
25827SOL     OW89539   7.519   9.348   0.103
25827SOL    HW189540   7.582   9.304   0.038
25827SOL    HW289541   7.566   9.424   0.147
25828SOL     OW89542   8.492   9.456   0.564
25828SOL    HW189543   8.462   9.551   0.573
25828SOL    HW289544   8.448   9.400   0.635
25829SOL     OW89545   7.970   9.306   0.831
25829SOL    HW189546   7.892   9.255   0.795
25829SOL    HW289547   8.043   9.243   0.855
25830SOL     OW89548   7.409   0.158   1.065
25830SOL    HW189549   7.496   0.202   1.087
25830SOL    HW289550   7.334   0.206   1.110
25831SOL     OW89551   7.688   9.282   0.481
25831SOL    HW189552   7.728   9.372   0.469
25831SOL    HW289553   7.588   9.291   0.488
25832SOL     OW89554   8.554   9.801   0.323
25832SOL    HW189555   8.493   9.837   0.394
25832SOL    HW289556   8.533   9.844   0.235
25833SOL     OW89557   7.663   0.076   1.348
25833SOL    HW189558   7.660   9.995   1.408
25833SOL    HW289559   7.621   0.153   1.395
25834SOL     OW89560   7.928   9.569   1.830
25834SOL    HW189561   7.994   9.563   1.755
25834SOL    HW289562   7.898   9.664   1.841
25835SOL     OW89563   7.897   0.018   0.382
25835SOL    HW189564   7.885   0.044   0.286
25835SOL    HW289565   7.808   9.995   0.422
25836SOL     OW89566   8.701   9.458   1.423
25836SOL    HW189567   8.690   9.454   1.522
25836SOL    HW289568   8.669   9.372   1.382
25837SOL     OW89569   7.408   9.302   0.488
25837SOL    HW189570   7.311   9.280   0.499
25837SOL    HW289571   7.418   9.400   0.470
25838SOL     OW89572   8.666   9.412   1.713
25838SOL    HW189573   8.710   9.372   1.794
25838SOL    HW289574   8.614   9.493   1.740
25839SOL     OW89575   8.464   9.708   1.062
25839SOL    HW189576   8.378   9.684   1.106
25839SOL    HW289577   8.540   9.666   1.112
25840SOL     OW89578   8.365   9.418   0.829
25840SOL    HW189579   8.458   9.428   0.863
25840SOL    HW289580   8.317   9.349   0.883
25841SOL     OW89581   8.185   9.347   0.169
25841SOL    HW189582   8.266   9.290   0.157
25841SOL    HW289583   8.213   9.439   0.199
25842SOL     OW89584   8.012   9.791   0.792
25842SOL    HW189585   8.038   9.696   0.810
25842SOL    HW289586   8.059   9.824   0.710
25843SOL     OW89587   7.583   9.779   1.751
25843SOL    HW189588   7.572   9.679   1.755
25843SOL    HW289589   7.673   9.803   1.789
25844SOL     OW89590   7.529   9.927   1.161
25844SOL    HW189591   7.580   9.971   1.235
25844SOL    HW289592   7.481   9.997   1.108
25845SOL     OW89593   8.068   9.567   0.499
25845SOL    HW189594   7.970   9.556   0.482
25845SOL    HW289595   8.086   9.556   0.596
25846SOL     OW89596   9.008   9.245   0.706
25846SOL    HW189597   8.998   9.272   0.611
25846SOL    HW289598   9.064   9.312   0.755
25847SOL     OW89599   8.985   9.925   3.308
25847SOL    HW189600   8.910   9.860   3.315
25847SOL    HW289601   9.045   9.916   3.388
25848SOL     OW89602   7.741   9.378   1.815
25848SOL    HW189603   7.662   9.420   1.770
25848SOL    HW289604   7.812   9.447   1.828
25849SOL     OW89605   8.578   9.315   3.182
25849SOL    HW189606   8.498   9.268   3.220
25849SOL    HW289607   8.625   9.253   3.119
25850SOL     OW89608   7.939   9.222   1.959
25850SOL    HW189609   8.028   9.267   1.969
25850SOL    HW289610   7.878   9.279   1.904
25851SOL     OW89611   8.636   9.764   3.562
25851SOL    HW189612   8.729   9.753   3.596
25851SOL    HW289613   8.587   9.677   3.570
25852SOL     OW89614   7.922   9.514   2.828
25852SOL    HW189615   7.956   9.608   2.822
25852SOL    HW289616   7.994   9.450   2.801
25853SOL     OW89617   9.073   9.564   2.994
25853SOL    HW189618   9.097   9.660   3.009
25853SOL    HW289619   8.974   9.556   2.983
25854SOL     OW89620   8.439   9.553   2.289
25854SOL    HW189621   8.389   9.627   2.334
25854SOL    HW289622   8.465   9.484   2.357
25855SOL     OW89623   7.848   9.835   1.824
25855SOL    HW189624   7.837   9.905   1.896
25855SOL    HW289625   7.931   9.856   1.771
25856SOL     OW89626   8.432   9.955   3.417
25856SOL    HW189627   8.482   9.871   3.438
25856SOL    HW289628   8.458   0.026   3.482
25857SOL     OW89629   8.584   9.497   2.048
25857SOL    HW189630   8.651   9.422   2.046
25857SOL    HW289631   8.553   9.512   2.142
25858SOL     OW89632   7.756   9.785   3.008
25858SOL    HW189633   7.740   9.688   3.023
25858SOL    HW289634   7.674   9.837   3.031
25859SOL     OW89635   8.796   0.037   3.128
25859SOL    HW189636   8.837   0.115   3.079
25859SOL    HW289637   8.866   9.993   3.184
25860SOL     OW89638   9.106   9.835   3.064
25860SOL    HW189639   9.200   9.869   3.054
25860SOL    HW289640   9.069   9.866   3.151
25861SOL     OW89641   8.296   9.737   2.441
25861SOL    HW189642   8.362   9.764   2.512
25861SOL    HW289643   8.250   9.818   2.406
25862SOL     OW89644   8.490   9.537   3.600
25862SOL    HW189645   8.515   9.538   3.697
25862SOL    HW289646   8.400   9.494   3.590
25863SOL     OW89647   8.133   9.288   3.537
25863SOL    HW189648   8.156   9.193   3.515
25863SOL    HW289649   8.146   9.304   3.635
25864SOL     OW89650   9.080   9.842   2.787
25864SOL    HW189651   9.055   9.929   2.745
25864SOL    HW289652   9.080   9.852   2.887
25865SOL     OW89653   8.765   9.180   2.747
25865SOL    HW189654   8.729   9.272   2.757
25865SOL    HW289655   8.854   9.183   2.702
25866SOL     OW89656   9.151   9.462   3.672
25866SOL    HW189657   9.092   9.514   3.734
25866SOL    HW289658   9.205   9.397   3.725
25867SOL     OW89659   7.717   9.429   2.644
25867SOL    HW189660   7.788   9.465   2.705
25867SOL    HW289661   7.740   9.335   2.618
25868SOL     OW89662   7.749   9.488   3.049
25868SOL    HW189663   7.729   9.392   3.065
25868SOL    HW289664   7.808   9.498   2.969
25869SOL     OW89665   8.422   0.353   3.091
25869SOL    HW189666   8.457   0.279   3.149
25869SOL    HW289667   8.389   0.316   3.005
25870SOL     OW89668   8.771   9.651   2.304
25870SOL    HW189669   8.731   9.721   2.244
25870SOL    HW289670   8.867   9.673   2.321
25871SOL     OW89671   7.617   9.836   3.366
25871SOL    HW189672   7.609   9.745   3.325
25871SOL    HW289673   7.595   9.830   3.464
25872SOL     OW89674   7.579   9.574   3.265
25872SOL    HW189675   7.647   9.548   3.197
25872SOL    HW289676   7.489   9.541   3.236
25873SOL     OW89677   8.339   9.987   2.964
25873SOL    HW189678   8.383   9.900   2.940
25873SOL    HW289679   8.292   9.977   3.052
25874SOL     OW89680   9.021   9.718   2.393
25874SOL    HW189681   9.112   9.690   2.365
25874SOL    HW289682   9.005   9.688   2.488
25875SOL     OW89683   8.253   9.573   2.089
25875SOL    HW189684   8.172   9.552   2.144
25875SOL    HW289685   8.335   9.562   2.146
25876SOL     OW89686   8.256   0.176   2.403
25876SOL    HW189687   8.225   0.089   2.366
25876SOL    HW289688   8.223   0.187   2.497
25877SOL     OW89689   7.396   9.610   2.273
25877SOL    HW189690   7.419   9.527   2.222
25877SOL    HW289691   7.437   9.607   2.364
25878SOL     OW89692   8.221   9.948   3.215
25878SOL    HW189693   8.171   0.033   3.231
25878SOL    HW289694   8.292   9.938   3.285
25879SOL     OW89695   7.705   9.905   2.750
25879SOL    HW189696   7.779   9.878   2.688
25879SOL    HW289697   7.722   9.868   2.841
25880SOL     OW89698   8.151   9.238   2.245
25880SOL    HW189699   8.170   9.237   2.147
25880SOL    HW289700   8.116   9.328   2.271
25881SOL     OW89701   8.988   9.515   3.455
25881SOL    HW189702   8.939   9.598   3.483
25881SOL    HW289703   9.050   9.487   3.527
25882SOL     OW89704   8.680   9.441   2.788
25882SOL    HW189705   8.694   9.503   2.711
25882SOL    HW289706   8.725   9.478   2.869
25883SOL     OW89707   8.768   9.285   1.950
25883SOL    HW189708   8.863   9.278   1.980
25883SOL    HW289709   8.724   9.195   1.957
25884SOL     OW89710   8.987   9.236   3.429
25884SOL    HW189711   8.970   9.204   3.336
25884SOL    HW289712   8.973   9.335   3.433
25885SOL     OW89713   8.124   9.529   2.508
25885SOL    HW189714   8.136   9.483   2.596
25885SOL    HW289715   8.189   9.604   2.500
25886SOL     OW89716   8.718   9.836   2.957
25886SOL    HW189717   8.739   9.881   2.871
25886SOL    HW289718   8.739   9.897   3.033
25887SOL     OW89719   8.977   9.277   2.340
25887SOL    HW189720   9.002   9.217   2.264
25887SOL    HW289721   8.885   9.314   2.325
25888SOL     OW89722   8.481   9.770   2.638
25888SOL    HW189723   8.570   9.734   2.613
25888SOL    HW289724   8.472   9.771   2.737
25889SOL     OW89725   9.115   9.913   3.557
25889SOL    HW189726   9.115   0.010   3.583
25889SOL    HW289727   9.203   9.872   3.582
25890SOL     OW89728   8.798   9.576   2.994
25890SOL    HW189729   8.774   9.672   2.982
25890SOL    HW289730   8.781   9.549   3.089
25891SOL     OW89731   8.906   9.733   3.628
25891SOL    HW189732   8.975   9.803   3.607
25891SOL    HW289733   8.929   9.689   3.715
25892SOL     OW89734   7.528   9.528   3.539
25892SOL    HW189735   7.541   9.538   3.441
25892SOL    HW289736   7.433   9.503   3.559
25893SOL     OW89737   7.498   9.543   2.534
25893SOL    HW189738   7.491   9.636   2.570
25893SOL    HW289739   7.582   9.500   2.568
25894SOL     OW89740   9.164   9.474   3.240
25894SOL    HW189741   9.094   9.498   3.307
25894SOL    HW289742   9.132   9.496   3.148
25895SOL     OW89743   7.478   9.784   2.645
25895SOL    HW189744   7.396   9.816   2.691
25895SOL    HW289745   7.557   9.836   2.677
25896SOL     OW89746   8.533   9.883   1.930
25896SOL    HW189747   8.553   9.956   1.866
25896SOL    HW289748   8.535   9.795   1.882
25897SOL     OW89749   8.292   9.852   2.065
25897SOL    HW189750   8.382   9.866   2.024
25897SOL    HW289751   8.270   9.755   2.065
25898SOL     OW89752   8.728   9.380   2.310
25898SOL    HW189753   8.653   9.367   2.374
25898SOL    HW289754   8.743   9.478   2.294
25899SOL     OW89755   8.774   9.763   3.323
25899SOL    HW189756   8.718   9.775   3.405
25899SOL    HW289757   8.765   9.670   3.289
25900SOL     OW89758   7.493   9.293   2.001
25900SOL    HW189759   7.561   9.228   2.033
25900SOL    HW289760   7.538   9.370   1.957
25901SOL     OW89761   8.022   9.882   3.009
25901SOL    HW189762   8.069   9.901   3.095
25901SOL    HW289763   7.928   9.854   3.029
25902SOL     OW89764   8.530   9.409   2.505
25902SOL    HW189765   8.584   9.484   2.541
25902SOL    HW289766   8.478   9.366   2.579
25903SOL     OW89767   8.156   9.382   2.744
25903SOL    HW189768   8.115   9.298   2.779
25903SOL    HW289769   8.255   9.373   2.745
25904SOL     OW89770   7.440   0.182   2.945
25904SOL    HW189771   7.521   0.240   2.935
25904SOL    HW289772   7.359   0.240   2.957
25905SOL     OW89773   7.669   9.241   2.308
25905SOL    HW189774   7.718   9.231   2.394
25905SOL    HW289775   7.575   9.271   2.325
25906SOL     OW89776   9.136   9.428   2.749
25906SOL    HW189777   9.126   9.462   2.842
25906SOL    HW289778   9.233   9.419   2.727
25907SOL     OW89779   8.685   9.867   2.162
25907SOL    HW189780   8.676   9.953   2.214
25907SOL    HW289781   8.626   9.871   2.081
25908SOL     OW89782   7.660   0.084   3.264
25908SOL    HW189783   7.659   9.993   3.304
25908SOL    HW289784   7.633   0.152   3.332
25909SOL     OW89785   7.930   9.606   3.618
25909SOL    HW189786   7.988   9.595   3.537
25909SOL    HW289787   7.944   9.697   3.657
25910SOL     OW89788   7.879   9.922   2.211
25910SOL    HW189789   7.886   9.974   2.126
25910SOL    HW289790   7.803   9.957   2.265
25911SOL     OW89791   8.756   9.501   3.256
25911SOL    HW189792   8.814   9.465   3.329
25911SOL    HW289793   8.685   9.434   3.233
25912SOL     OW89794   7.421   9.332   2.368
25912SOL    HW189795   7.322   9.322   2.352
25912SOL    HW289796   7.437   9.403   2.437
25913SOL     OW89797   8.701   9.355   3.596
25913SOL    HW189798   8.739   9.351   3.688
25913SOL    HW289799   8.631   9.425   3.591
25914SOL     OW89800   8.465   9.745   2.914
25914SOL    HW189801   8.558   9.779   2.934
25914SOL    HW289802   8.455   9.654   2.952
25915SOL     OW89803   8.427   9.333   2.763
25915SOL    HW189804   8.517   9.369   2.786
25915SOL    HW289805   8.406   9.255   2.823
25916SOL     OW89806   8.976   9.632   2.651
25916SOL    HW189807   9.008   9.711   2.704
25916SOL    HW289808   9.028   9.551   2.677
25917SOL     OW89809   8.200   9.320   1.978
25917SOL    HW189810   8.281   9.261   1.981
25917SOL    HW289811   8.225   9.413   2.007
25918SOL     OW89812   7.934   9.825   2.620
25918SOL    HW189813   8.003   9.775   2.672
25918SOL    HW289814   7.924   9.784   2.529
25919SOL     OW89815   7.543   9.788   3.631
25919SOL    HW189816   7.546   9.690   3.612
25919SOL    HW289817   7.597   9.809   3.712
25920SOL     OW89818   8.111   9.726   2.806
25920SOL    HW189819   8.210   9.720   2.796
25920SOL    HW289820   8.089   9.785   2.884
25921SOL     OW89821   7.539   9.953   3.052
25921SOL    HW189822   7.580   9.992   3.134
25921SOL    HW289823   7.501   0.026   2.996
25922SOL     OW89824   9.001   9.220   2.610
25922SOL    HW189825   8.988   9.247   2.515
25922SOL    HW289826   9.054   9.291   2.658
25923SOL     OW89827   8.714   9.617   2.571
25923SOL    HW189828   8.717   9.632   2.472
25923SOL    HW289829   8.805   9.629   2.610
25924SOL     OW89830   9.051   9.817   5.109
25924SOL    HW189831   8.965   9.779   5.141
25924SOL    HW289832   9.113   9.830   5.187
25925SOL     OW89833   7.739   9.428   3.673
25925SOL    HW189834   7.658   9.458   3.622
25925SOL    HW289835   7.816   9.489   3.652
25926SOL     OW89836   8.579   9.305   5.012
25926SOL    HW189837   8.500   9.261   5.056
25926SOL    HW289838   8.620   9.242   4.946
25927SOL     OW89839   7.914   9.259   3.815
25927SOL    HW189840   8.009   9.290   3.811
25927SOL    HW289841   7.857   9.322   3.761
25928SOL     OW89842   8.158   9.782   4.213
25928SOL    HW189843   8.170   9.860   4.152
25928SOL    HW289844   8.109   9.709   4.165
25929SOL     OW89845   7.940   9.473   4.681
25929SOL    HW189846   8.002   9.550   4.692
25929SOL    HW289847   7.987   9.397   4.637
25930SOL     OW89848   9.067   9.534   4.820
25930SOL    HW189849   9.102   9.628   4.822
25930SOL    HW289850   8.967   9.535   4.819
25931SOL     OW89851   8.459   9.583   4.073
25931SOL    HW189852   8.496   9.674   4.092
25931SOL    HW289853   8.470   9.526   4.154
25932SOL     OW89854   7.970   9.850   3.745
25932SOL    HW189855   7.950   9.948   3.743
25932SOL    HW289856   8.064   9.836   3.774
25933SOL     OW89857   8.343   9.939   5.303
25933SOL    HW189858   8.360   9.848   5.340
25933SOL    HW289859   8.420   9.999   5.325
25934SOL     OW89860   8.593   9.535   3.843
25934SOL    HW189861   8.671   9.475   3.861
25934SOL    HW289862   8.544   9.552   3.929
25935SOL     OW89863   7.781   9.795   4.812
25935SOL    HW189864   7.774   9.696   4.825
25935SOL    HW289865   7.692   9.837   4.830
25936SOL     OW89866   8.823   9.965   5.020
25936SOL    HW189867   8.799   0.061   5.028
25936SOL    HW289868   8.921   9.954   5.035
25937SOL     OW89869   7.779   9.490   4.131
25937SOL    HW189870   7.731   9.534   4.208
25937SOL    HW289871   7.734   9.515   4.045
25938SOL     OW89872   9.143   9.796   4.854
25938SOL    HW189873   9.234   9.839   4.852
25938SOL    HW289874   9.105   9.803   4.947
25939SOL     OW89875   8.345   9.659   4.371
25939SOL    HW189876   8.410   9.722   4.414
25939SOL    HW289877   8.281   9.711   4.314
25940SOL     OW89878   8.413   9.699   5.420
25940SOL    HW189879   8.508   9.679   5.444
25940SOL    HW289880   8.366   9.613   5.397
25941SOL     OW89881   9.009   9.906   3.989
25941SOL    HW189882   9.087   9.944   3.938
25941SOL    HW289883   9.036   9.821   4.033
25942SOL     OW89884   8.146   9.282   5.402
25942SOL    HW189885   8.171   9.190   5.374
25942SOL    HW289886   8.159   9.292   5.500
25943SOL     OW89887   9.100   9.843   4.583
25943SOL    HW189888   9.053   9.928   4.561
25943SOL    HW289889   9.102   9.831   4.683
25944SOL     OW89890   8.777   9.185   4.580
25944SOL    HW189891   8.737   9.276   4.587
25944SOL    HW289892   8.865   9.191   4.533
25945SOL     OW89893   9.123   9.460   5.538
25945SOL    HW189894   9.061   9.502   5.605
25945SOL    HW289895   9.185   9.397   5.584
25946SOL     OW89896   7.703   9.420   4.527
25946SOL    HW189897   7.782   9.449   4.583
25946SOL    HW289898   7.704   9.321   4.518
25947SOL     OW89899   7.772   9.452   4.896
25947SOL    HW189900   7.753   9.356   4.915
25947SOL    HW289901   7.834   9.459   4.818
25948SOL     OW89902   8.335   0.315   4.926
25948SOL    HW189903   8.385   0.268   4.999
25948SOL    HW289904   8.333   0.258   4.844
25949SOL     OW89905   8.759   9.661   4.142
25949SOL    HW189906   8.704   9.731   4.097
25949SOL    HW289907   8.856   9.680   4.127
25950SOL     OW89908   7.726   9.785   5.220
25950SOL    HW189909   7.687   9.706   5.173
25950SOL    HW289910   7.672   9.805   5.301
25951SOL     OW89911   7.626   9.554   5.101
25951SOL    HW189912   7.682   9.521   5.025
25951SOL    HW289913   7.529   9.539   5.079
25952SOL     OW89914   8.398   9.955   4.900
25952SOL    HW189915   8.421   9.869   4.853
25952SOL    HW289916   8.313   9.943   4.951
25953SOL     OW89917   9.041   9.667   4.134
25953SOL    HW189918   9.133   9.633   4.115
25953SOL    HW289919   9.024   9.665   4.232
25954SOL     OW89920   8.226   9.567   3.940
25954SOL    HW189921   8.154   9.545   4.007
25954SOL    HW289922   8.314   9.568   3.986
25955SOL     OW89923   8.298   0.155   4.230
25955SOL    HW189924   8.260   0.096   4.158
25955SOL    HW289925   8.225   0.183   4.291
25956SOL     OW89926   7.457   9.575   4.109
25956SOL    HW189927   7.517   9.578   4.029
25956SOL    HW289928   7.510   9.591   4.192
25957SOL     OW89929   8.182   9.950   5.070
25957SOL    HW189930   8.133   0.036   5.083
25957SOL    HW289931   8.237   9.930   5.151
25958SOL     OW89932   7.787   9.923   4.564
25958SOL    HW189933   7.853   9.877   4.504
25958SOL    HW289934   7.788   9.880   4.654
25959SOL     OW89935   8.157   9.228   4.120
25959SOL    HW189936   8.133   9.180   4.035
25959SOL    HW289937   8.122   9.321   4.116
25960SOL     OW89938   8.982   9.518   5.311
25960SOL    HW189939   8.939   9.604   5.336
25960SOL    HW289940   9.034   9.482   5.388
25961SOL     OW89941   8.685   9.447   4.615
25961SOL    HW189942   8.699   9.513   4.541
25961SOL    HW289943   8.728   9.481   4.698
25962SOL     OW89944   8.806   9.360   3.884
25962SOL    HW189945   8.878   9.292   3.873
25962SOL    HW289946   8.766   9.353   3.975
25963SOL     OW89947   8.962   9.240   5.268
25963SOL    HW189948   8.946   9.211   5.174
25963SOL    HW289949   8.956   9.340   5.274
25964SOL     OW89950   8.113   9.507   4.401
25964SOL    HW189951   8.108   9.421   4.453
25964SOL    HW289952   8.205   9.545   4.409
25965SOL     OW89953   8.737   9.830   4.802
25965SOL    HW189954   8.751   9.889   4.722
25965SOL    HW289955   8.764   9.879   4.885
25966SOL     OW89956   8.974   9.283   4.165
25966SOL    HW189957   8.994   9.247   4.074
25966SOL    HW289958   8.882   9.322   4.166
25967SOL     OW89959   8.532   9.813   4.494
25967SOL    HW189960   8.618   9.767   4.474
25967SOL    HW289961   8.509   9.802   4.591
25968SOL     OW89962   9.163   9.859   5.357
25968SOL    HW189963   9.086   9.816   5.404
25968SOL    HW289964   9.247   9.845   5.411
25969SOL     OW89965   8.795   9.566   4.839
25969SOL    HW189966   8.779   9.664   4.826
25969SOL    HW289967   8.773   9.541   4.934
25970SOL     OW89968   8.976   9.580   3.855
25970SOL    HW189969   9.001   9.612   3.946
25970SOL    HW289970   8.910   9.505   3.863
25971SOL     OW89971   7.601   9.443   5.360
25971SOL    HW189972   7.635   9.463   5.268
25971SOL    HW289973   7.520   9.499   5.379
25972SOL     OW89974   7.618   9.587   4.329
25972SOL    HW189975   7.594   9.675   4.371
25972SOL    HW289976   7.648   9.523   4.401
25973SOL     OW89977   7.705   9.819   3.857
25973SOL    HW189978   7.799   9.828   3.827
25973SOL    HW289979   7.684   9.891   3.924
25974SOL     OW89980   9.151   9.485   5.086
25974SOL    HW189981   9.079   9.504   5.152
25974SOL    HW289982   9.115   9.494   4.994
25975SOL     OW89983   7.638   9.557   3.899
25975SOL    HW189984   7.678   9.505   3.824
25975SOL    HW289985   7.658   9.654   3.887
25976SOL     OW89986   7.548   9.812   4.455
25976SOL    HW189987   7.460   9.836   4.496
25976SOL    HW289988   7.620   9.868   4.496
25977SOL     OW89989   8.496   9.901   3.765
25977SOL    HW189990   8.500   9.995   3.731
25977SOL    HW289991   8.550   9.841   3.706
25978SOL     OW89992   8.238   9.818   3.828
25978SOL    HW189993   8.331   9.839   3.800
25978SOL    HW289994   8.233   9.722   3.858
25979SOL     OW89995   8.720   9.391   4.146
25979SOL    HW189996   8.640   9.372   4.202
25979SOL    HW289997   8.736   9.490   4.144
25980SOL     OW89998   8.791   9.757   5.196
25980SOL    HW189999   8.771   9.832   5.134
25980SOL    HW290000   8.754   9.672   5.158
25981SOL     OW90001   7.466   9.309   3.862
25981SOL    HW190002   7.538   9.242   3.880
25981SOL    HW290003   7.501   9.401   3.883
25982SOL     OW90004   8.037   9.909   4.823
25982SOL    HW190005   8.075   9.920   4.915
25982SOL    HW290006   7.943   9.876   4.829
25983SOL     OW90007   8.487   9.436   4.308
25983SOL    HW190008   8.436   9.518   4.334
25983SOL    HW290009   8.476   9.367   4.380
25984SOL     OW90010   8.087   9.278   4.550
25984SOL    HW190011   8.053   9.190   4.517
25984SOL    HW290012   8.167   9.262   4.608
25985SOL     OW90013   7.468   0.187   4.777
25985SOL    HW190014   7.553   0.241   4.775
25985SOL    HW290015   7.390   0.249   4.774
25986SOL     OW90016   7.663   9.236   4.162
25986SOL    HW190017   7.716   9.320   4.167
25986SOL    HW290018   7.569   9.254   4.192
25987SOL     OW90019   9.136   9.433   4.566
25987SOL    HW190020   9.112   9.459   4.659
25987SOL    HW290021   9.234   9.414   4.561
25988SOL     OW90022   8.579   9.842   4.039
25988SOL    HW190023   8.571   9.925   4.095
25988SOL    HW290024   8.558   9.865   3.944
25989SOL     OW90025   7.696   0.028   5.072
25989SOL    HW190026   7.724   9.949   5.126
25989SOL    HW290027   7.638   0.087   5.127
25990SOL     OW90028   7.919   9.680   5.399
25990SOL    HW190029   7.985   9.621   5.353
25990SOL    HW290030   7.861   9.725   5.331
25991SOL     OW90031   7.929   9.989   4.034
25991SOL    HW190032   7.915   0.038   3.948
25991SOL    HW290033   7.841   9.975   4.079
25992SOL     OW90034   8.735   9.502   5.107
25992SOL    HW190035   8.776   9.470   5.192
25992SOL    HW290036   8.672   9.433   5.072
25993SOL     OW90037   7.405   9.321   4.206
25993SOL    HW190038   7.310   9.296   4.192
25993SOL    HW290039   7.420   9.415   4.175
25994SOL     OW90040   8.699   9.391   5.423
25994SOL    HW190041   8.737   9.346   5.504
25994SOL    HW290042   8.686   9.488   5.442
25995SOL     OW90043   8.488   9.731   4.761
25995SOL    HW190044   8.580   9.765   4.780
25995SOL    HW290045   8.485   9.632   4.773
25996SOL     OW90046   8.446   9.319   4.555
25996SOL    HW190047   8.529   9.361   4.592
25996SOL    HW290048   8.396   9.273   4.629
25997SOL     OW90049   9.024   9.641   4.415
25997SOL    HW190050   9.054   9.720   4.468
25997SOL    HW290051   9.064   9.558   4.454
25998SOL     OW90052   8.177   9.335   3.800
25998SOL    HW190053   8.253   9.271   3.810
25998SOL    HW290054   8.199   9.421   3.845
25999SOL     OW90055   7.976   9.770   4.429
25999SOL    HW190056   7.993   9.674   4.453
25999SOL    HW290057   8.038   9.798   4.356
26000SOL     OW90058   7.605   9.834   5.456
26000SOL    HW190059   7.519   9.839   5.507
26000SOL    HW290060   7.682   9.843   5.519
26001SOL     OW90061   8.128   9.672   4.712
26001SOL    HW190062   8.219   9.683   4.671
26001SOL    HW290063   8.095   9.761   4.744
26002SOL     OW90064   7.548   9.941   4.862
26002SOL    HW190065   7.601   9.967   4.943
26002SOL    HW290066   7.516   0.023   4.815
26003SOL     OW90067   8.050   9.507   4.139
26003SOL    HW190068   7.951   9.498   4.129
26003SOL    HW290069   8.074   9.504   4.236
26004SOL     OW90070   9.008   9.228   4.434
26004SOL    HW190071   8.993   9.256   4.339
26004SOL    HW290072   9.056   9.301   4.482
26005SOL     OW90073   8.747   9.646   4.423
26005SOL    HW190074   8.727   9.645   4.325
26005SOL    HW290075   8.846   9.648   4.437
26006SOL     OW90076   9.053   9.871   6.948
26006SOL    HW190077   8.961   9.838   6.969
26006SOL    HW290078   9.109   9.870   7.031
26007SOL     OW90079   7.787   9.485   5.552
26007SOL    HW190080   7.717   9.464   5.483
26007SOL    HW290081   7.847   9.557   5.517
26008SOL     OW90082   8.601   9.306   6.881
26008SOL    HW190083   8.515   9.269   6.917
26008SOL    HW290084   8.636   9.247   6.809
26009SOL     OW90085   7.920   9.268   5.667
26009SOL    HW190086   8.018   9.285   5.668
26009SOL    HW290087   7.873   9.346   5.625
26010SOL     OW90088   8.063   9.799   5.940
26010SOL    HW190089   7.994   9.837   6.001
26010SOL    HW290090   8.060   9.699   5.945
26011SOL     OW90091   7.919   9.496   6.561
26011SOL    HW190092   7.973   9.579   6.570
26011SOL    HW290093   7.970   9.429   6.507
26012SOL     OW90094   9.069   9.555   6.642
26012SOL    HW190095   9.114   9.643   6.658
26012SOL    HW290096   8.970   9.569   6.638
26013SOL     OW90097   8.477   9.571   5.894
26013SOL    HW190098   8.486   9.669   5.909
26013SOL    HW290099   8.477   9.524   5.982
26014SOL     OW90100   7.838   9.847   5.610
26014SOL    HW190101   7.891   9.931   5.622
26014SOL    HW290102   7.884   9.787   5.545
26015SOL     OW90103   8.325   9.824   7.182
26015SOL    HW190104   8.335   9.724   7.174
26015SOL    HW290105   8.396   9.859   7.243
26016SOL     OW90106   8.691   9.519   5.727
26016SOL    HW190107   8.713   9.422   5.718
26016SOL    HW290108   8.616   9.530   5.793
26017SOL     OW90109   7.753   9.762   6.728
26017SOL    HW190110   7.738   9.665   6.747
26017SOL    HW290111   7.665   9.811   6.735
26018SOL     OW90112   8.936   0.010   6.740
26018SOL    HW190113   8.983   0.094   6.712
26018SOL    HW290114   8.983   9.971   6.819
26019SOL     OW90115   7.774   9.488   5.985
26019SOL    HW190116   7.729   9.534   6.062
26019SOL    HW290117   7.724   9.508   5.900
26020SOL     OW90118   9.169   9.803   6.702
26020SOL    HW190119   9.252   9.857   6.691
26020SOL    HW290120   9.127   9.823   6.791
26021SOL     OW90121   8.334   9.726   6.177
26021SOL    HW190122   8.407   9.762   6.236
26021SOL    HW290123   8.294   9.801   6.124
26022SOL     OW90124   8.491   9.531   7.405
26022SOL    HW190125   8.545   9.584   7.470
26022SOL    HW290126   8.395   9.531   7.432
26023SOL     OW90127   9.119   9.894   5.897
26023SOL    HW190128   9.091   9.799   5.912
26023SOL    HW290129   9.186   9.920   5.967
26024SOL     OW90130   8.138   9.269   7.262
26024SOL    HW190131   8.166   9.180   7.225
26024SOL    HW290132   8.153   9.270   7.361
26025SOL     OW90133   9.106   9.846   6.431
26025SOL    HW190134   9.041   9.917   6.406
26025SOL    HW290135   9.111   9.839   6.531
26026SOL     OW90136   8.791   9.190   6.432
26026SOL    HW190137   8.751   9.281   6.438
26026SOL    HW290138   8.878   9.195   6.382
26027SOL     OW90139   9.120   9.415   7.264
26027SOL    HW190140   9.080   9.435   7.353
26027SOL    HW290141   9.068   9.342   7.219
26028SOL     OW90142   7.716   9.432   6.374
26028SOL    HW190143   7.779   9.464   6.445
26028SOL    HW290144   7.748   9.345   6.337
26029SOL     OW90145   7.748   9.466   6.774
26029SOL    HW190146   7.728   9.369   6.785
26029SOL    HW290147   7.812   9.479   6.698
26030SOL     OW90148   8.296   0.282   6.780
26030SOL    HW190149   8.311   0.192   6.741
26030SOL    HW290150   8.219   0.327   6.733
26031SOL     OW90151   8.731   9.736   6.010
26031SOL    HW190152   8.649   9.781   5.977
26031SOL    HW290153   8.808   9.801   6.009
26032SOL     OW90154   7.590   9.827   7.063
26032SOL    HW190155   7.589   9.735   7.022
26032SOL    HW290156   7.566   9.821   7.160
26033SOL     OW90157   7.572   9.559   6.971
26033SOL    HW190158   7.643   9.528   6.908
26033SOL    HW290159   7.482   9.530   6.937
26034SOL     OW90160   8.351   0.022   6.682
26034SOL    HW190161   8.373   9.937   6.634
26034SOL    HW290162   8.340   0.003   6.779
26035SOL     OW90163   9.054   9.645   5.992
26035SOL    HW190164   9.148   9.614   5.982
26035SOL    HW290165   9.027   9.642   6.088
26036SOL     OW90166   8.237   9.563   5.771
26036SOL    HW190167   8.166   9.555   5.840
26036SOL    HW290168   8.327   9.560   5.814
26037SOL     OW90169   8.301   9.989   6.064
26037SOL    HW190170   8.241   0.025   5.992
26037SOL    HW290171   8.275   0.029   6.152
26038SOL     OW90172   7.448   9.560   5.976
26038SOL    HW190173   7.504   9.556   5.893
26038SOL    HW290174   7.505   9.583   6.055
26039SOL     OW90175   8.325   9.975   6.950
26039SOL    HW190176   8.239   0.027   6.950
26039SOL    HW290177   8.328   9.917   7.031
26040SOL     OW90178   7.763   9.864   6.468
26040SOL    HW190179   7.828   9.815   6.410
26040SOL    HW290180   7.764   9.824   6.560
26041SOL     OW90181   8.126   9.254   5.956
26041SOL    HW190182   8.146   9.234   5.860
26041SOL    HW290183   8.098   9.349   5.965
26042SOL     OW90184   8.974   9.558   7.075
26042SOL    HW190185   8.925   9.642   7.101
26042SOL    HW290186   9.025   9.524   7.154
26043SOL     OW90187   8.701   9.452   6.459
26043SOL    HW190188   8.710   9.509   6.378
26043SOL    HW290189   8.735   9.501   6.539
26044SOL     OW90190   8.786   9.269   5.665
26044SOL    HW190191   8.884   9.265   5.685
26044SOL    HW290192   8.745   9.179   5.683
26045SOL     OW90193   8.938   9.243   7.134
26045SOL    HW190194   8.937   9.215   7.038
26045SOL    HW290195   8.851   9.286   7.158
26046SOL     OW90196   8.111   9.559   6.230
26046SOL    HW190197   8.107   9.480   6.292
26046SOL    HW290198   8.202   9.600   6.235
26047SOL     OW90199   8.710   9.899   6.647
26047SOL    HW190200   8.687   9.951   6.565
26047SOL    HW290201   8.794   9.936   6.687
26048SOL     OW90202   8.954   9.290   6.012
26048SOL    HW190203   8.960   9.253   5.919
26048SOL    HW290204   8.872   9.347   6.020
26049SOL     OW90205   8.541   9.808   6.332
26049SOL    HW190206   8.618   9.746   6.319
26049SOL    HW290207   8.504   9.796   6.424
26050SOL     OW90208   8.798   9.625   6.654
26050SOL    HW190209   8.774   9.722   6.647
26050SOL    HW290210   8.777   9.593   6.747
26051SOL     OW90211   8.967   9.548   5.747
26051SOL    HW190212   8.996   9.581   5.837
26051SOL    HW290213   8.867   9.545   5.743
26052SOL     OW90214   7.541   9.512   7.244
26052SOL    HW190215   7.551   9.522   7.145
26052SOL    HW290216   7.447   9.483   7.265
26053SOL     OW90217   7.619   9.600   6.184
26053SOL    HW190218   7.586   9.683   6.227
26053SOL    HW290219   7.652   9.537   6.254
26054SOL     OW90220   7.633   9.821   5.787
26054SOL    HW190221   7.718   9.834   5.736
26054SOL    HW290222   7.633   9.879   5.868
26055SOL     OW90223   9.162   9.471   6.894
26055SOL    HW190224   9.092   9.504   6.957
26055SOL    HW290225   9.132   9.486   6.800
26056SOL     OW90226   7.620   9.551   5.760
26056SOL    HW190227   7.682   9.523   5.686
26056SOL    HW290228   7.618   9.651   5.765
26057SOL     OW90229   7.530   9.811   6.325
26057SOL    HW190230   7.443   9.838   6.366
26057SOL    HW290231   7.605   9.845   6.382
26058SOL     OW90232   8.358   9.811   5.669
26058SOL    HW190233   8.380   9.779   5.577
26058SOL    HW290234   8.295   9.747   5.712
26059SOL     OW90235   8.731   9.447   6.034
26059SOL    HW190236   8.645   9.437   6.085
26059SOL    HW290237   8.744   9.543   6.009
26060SOL     OW90238   8.802   9.783   7.009
26060SOL    HW190239   8.733   9.853   6.992
26060SOL    HW290240   8.772   9.695   6.971
26061SOL     OW90241   7.462   9.313   5.714
26061SOL    HW190242   7.534   9.244   5.722
26061SOL    HW290243   7.500   9.404   5.729
26062SOL     OW90244   7.989   9.911   6.740
26062SOL    HW190245   8.006   9.970   6.819
26062SOL    HW290246   7.903   9.862   6.752
26063SOL     OW90247   8.471   9.489   6.153
26063SOL    HW190248   8.421   9.576   6.159
26063SOL    HW290249   8.457   9.437   6.237
26064SOL     OW90250   8.061   9.335   6.389
26064SOL    HW190251   8.000   9.263   6.358
26064SOL    HW290252   8.142   9.294   6.431
26065SOL     OW90253   7.504   0.211   6.620
26065SOL    HW190254   7.571   0.239   6.690
26065SOL    HW290255   7.414   0.244   6.645
26066SOL     OW90256   7.656   9.230   5.992
26066SOL    HW190257   7.711   9.312   6.007
26066SOL    HW290258   7.564   9.245   6.028
26067SOL     OW90259   9.159   9.433   6.407
26067SOL    HW190260   9.127   9.465   6.497
26067SOL    HW290261   9.258   9.422   6.409
26068SOL     OW90262   8.493   9.845   5.915
26068SOL    HW190263   8.440   9.902   5.978
26068SOL    HW290264   8.453   9.851   5.823
26069SOL     OW90265   7.637   0.068   6.946
26069SOL    HW190266   7.630   9.984   6.999
26069SOL    HW290267   7.578   0.138   6.986
26070SOL     OW90268   7.956   9.592   7.368
26070SOL    HW190269   8.009   9.581   7.283
26070SOL    HW290270   7.953   9.689   7.392
26071SOL     OW90271   7.876   9.924   6.095
26071SOL    HW190272   7.898   0.018   6.071
26071SOL    HW290273   7.778   9.908   6.084
26072SOL     OW90274   8.752   9.531   6.906
26072SOL    HW190275   8.831   9.509   6.963
26072SOL    HW290276   8.691   9.452   6.900
26073SOL     OW90277   7.402   9.304   6.063
26073SOL    HW190278   7.308   9.275   6.047
26073SOL    HW290279   7.413   9.400   6.036
26074SOL     OW90280   8.683   9.343   7.315
26074SOL    HW190281   8.738   9.321   7.394
26074SOL    HW290282   8.615   9.412   7.340
26075SOL     OW90283   8.461   9.783   6.592
26075SOL    HW190284   8.550   9.803   6.632
26075SOL    HW290285   8.430   9.694   6.626
26076SOL     OW90286   8.433   9.391   6.403
26076SOL    HW190287   8.524   9.401   6.442
26076SOL    HW290288   8.376   9.334   6.462
26077SOL     OW90289   9.029   9.636   6.271
26077SOL    HW190290   9.058   9.717   6.322
26077SOL    HW290291   9.074   9.555   6.309
26078SOL     OW90292   8.188   9.313   5.670
26078SOL    HW190293   8.267   9.251   5.676
26078SOL    HW290294   8.215   9.405   5.698
26079SOL     OW90295   7.963   9.773   6.310
26079SOL    HW190296   8.010   9.691   6.278
26079SOL    HW290297   7.939   9.831   6.232
26080SOL     OW90298   7.515   9.774   7.324
26080SOL    HW190299   7.528   9.676   7.306
26080SOL    HW290300   7.568   9.800   7.404
26081SOL     OW90301   8.077   9.716   6.567
26081SOL    HW190302   8.061   9.753   6.476
26081SOL    HW290303   8.062   9.788   6.635
26082SOL     OW90304   7.537   9.942   6.724
26082SOL    HW190305   7.572   9.982   6.809
26082SOL    HW290306   7.528   0.014   6.655
26083SOL     OW90307   8.045   9.522   5.972
26083SOL    HW190308   7.947   9.505   5.969
26083SOL    HW290309   8.073   9.533   6.068
26084SOL     OW90310   9.019   9.227   6.277
26084SOL    HW190311   8.992   9.254   6.185
26084SOL    HW290312   9.071   9.302   6.319
26085SOL     OW90313   8.755   9.649   6.271
26085SOL    HW190314   8.734   9.672   6.176
26085SOL    HW290315   8.854   9.642   6.282
26086SOL     OW90316   8.909   9.804   8.852
26086SOL    HW190317   8.842   9.738   8.819
26086SOL    HW290318   8.980   9.756   8.905
26087SOL     OW90319   7.755   9.413   7.379
26087SOL    HW190320   7.677   9.445   7.325
26087SOL    HW290321   7.831   9.477   7.369
26088SOL     OW90322   8.586   9.355   8.742
26088SOL    HW190323   8.515   9.308   8.795
26088SOL    HW290324   8.604   9.305   8.657
26089SOL     OW90325   7.922   9.243   7.528
26089SOL    HW190326   8.017   9.273   7.536
26089SOL    HW290327   7.871   9.307   7.470
26090SOL     OW90328   8.008   9.818   7.894
26090SOL    HW190329   7.994   9.873   7.811
26090SOL    HW290330   8.033   9.725   7.868
26091SOL     OW90331   7.889   9.494   8.409
26091SOL    HW190332   7.934   9.583   8.407
26091SOL    HW290333   7.955   9.424   8.382
26092SOL     OW90334   8.371   9.581   7.798
26092SOL    HW190335   8.361   9.642   7.877
26092SOL    HW290336   8.344   9.488   7.825
26093SOL     OW90337   7.944   9.858   7.444
26093SOL    HW190338   7.992   9.908   7.372
26093SOL    HW290339   7.955   9.906   7.531
26094SOL     OW90340   8.604   9.669   7.609
26094SOL    HW190341   8.700   9.671   7.635
26094SOL    HW290342   8.548   9.651   7.690
26095SOL     OW90343   7.736   9.728   8.679
26095SOL    HW190344   7.742   9.629   8.673
26095SOL    HW290345   7.654   9.760   8.630
26096SOL     OW90346   8.905   0.045   8.717
26096SOL    HW190347   8.995   0.080   8.689
26096SOL    HW290348   8.916   9.953   8.754
26097SOL     OW90349   7.776   9.492   7.843
26097SOL    HW190350   7.724   9.537   7.915
26097SOL    HW290351   7.737   9.513   7.754
26098SOL     OW90352   9.135   9.697   7.564
26098SOL    HW190353   9.119   9.608   7.522
26098SOL    HW290354   9.190   9.686   7.647
26099SOL     OW90355   8.152   9.287   9.100
26099SOL    HW190356   8.178   9.194   9.074
26099SOL    HW290357   8.185   9.306   9.192
26100SOL     OW90358   7.667   9.420   8.236
26100SOL    HW190359   7.737   9.453   8.300
26100SOL    HW290360   7.684   9.324   8.215
26101SOL     OW90361   7.748   9.452   8.640
26101SOL    HW190362   7.746   9.353   8.657
26101SOL    HW290363   7.797   9.469   8.554
26102SOL     OW90364   8.368   0.364   8.743
26102SOL    HW190365   8.422   0.282   8.762
26102SOL    HW290366   8.311   0.348   8.663
26103SOL     OW90367   8.875   9.666   7.667
26103SOL    HW190368   8.946   9.714   7.617
26103SOL    HW290369   8.902   9.658   7.763
26104SOL     OW90370   7.724   9.894   8.909
26104SOL    HW190371   7.735   9.815   8.848
26104SOL    HW290372   7.685   9.863   8.996
26105SOL     OW90373   7.534   9.496   8.812
26105SOL    HW190374   7.610   9.479   8.749
26105SOL    HW290375   7.450   9.458   8.773
26106SOL     OW90376   8.247   0.230   8.515
26106SOL    HW190377   8.319   0.239   8.446
26106SOL    HW290378   8.225   0.133   8.527
26107SOL     OW90379   9.015   9.671   7.901
26107SOL    HW190380   9.106   9.646   7.867
26107SOL    HW290381   9.024   9.722   7.986
26108SOL     OW90382   8.248   9.569   7.556
26108SOL    HW190383   8.151   9.589   7.566
26108SOL    HW290384   8.293   9.576   7.646
26109SOL     OW90385   7.456   9.570   7.803
26109SOL    HW190386   7.520   9.570   7.726
26109SOL    HW290387   7.506   9.589   7.888
26110SOL     OW90388   8.161   9.972   8.564
26110SOL    HW190389   8.161   0.002   8.660
26110SOL    HW290390   8.228   9.899   8.552
26111SOL     OW90391   7.738   9.929   8.309
26111SOL    HW190392   7.777   9.878   8.232
26111SOL    HW290393   7.800   9.925   8.387
26112SOL     OW90394   8.221   9.338   7.820
26112SOL    HW190395   8.201   9.306   7.727
26112SOL    HW290396   8.152   9.404   7.848
26113SOL     OW90397   8.891   9.502   9.001
26113SOL    HW190398   8.822   9.466   9.065
26113SOL    HW290399   8.965   9.545   9.053
26114SOL     OW90400   8.853   9.228   7.520
26114SOL    HW190401   8.944   9.195   7.543
26114SOL    HW290402   8.788   9.152   7.527
26115SOL     OW90403   9.004   9.282   8.841
26115SOL    HW190404   8.938   9.237   8.781
26115SOL    HW290405   8.961   9.361   8.886
26116SOL     OW90406   8.063   9.556   8.159
26116SOL    HW190407   8.074   9.465   8.198
26116SOL    HW290408   8.081   9.626   8.229
26117SOL     OW90409   8.672   9.985   8.588
26117SOL    HW190410   8.683   9.991   8.489
26117SOL    HW290411   8.758   0.010   8.633
26118SOL     OW90412   8.547   9.793   8.329
26118SOL    HW190413   8.611   9.866   8.306
26118SOL    HW290414   8.578   9.745   8.411
26119SOL     OW90415   9.104   9.767   9.074
26119SOL    HW190416   9.073   9.862   9.062
26119SOL    HW290417   9.204   9.766   9.079
26120SOL     OW90418   8.575   9.731   8.618
26120SOL    HW190419   8.610   9.824   8.614
26120SOL    HW290420   8.631   9.676   8.680
26121SOL     OW90421   9.048   9.821   9.347
26121SOL    HW190422   9.072   9.782   9.258
26121SOL    HW290423   9.127   9.818   9.407
26122SOL     OW90424   8.973   9.470   7.492
26122SOL    HW190425   8.930   9.537   7.553
26122SOL    HW290426   8.928   9.382   7.503
26123SOL     OW90427   7.482   9.572   9.064
26123SOL    HW190428   7.505   9.538   8.972
26123SOL    HW290429   7.411   9.641   9.057
26124SOL     OW90430   7.604   9.590   8.031
26124SOL    HW190431   7.579   9.678   8.071
26124SOL    HW290432   7.626   9.525   8.105
26125SOL     OW90433   7.686   9.808   7.540
26125SOL    HW190434   7.774   9.827   7.498
26125SOL    HW290435   7.670   9.873   7.615
26126SOL     OW90436   7.645   9.545   7.601
26126SOL    HW190437   7.688   9.490   7.529
26126SOL    HW290438   7.656   9.642   7.580
26127SOL     OW90439   7.519   9.810   8.163
26127SOL    HW190440   7.428   9.822   8.202
26127SOL    HW290441   7.585   9.866   8.214
26128SOL     OW90442   8.509   9.918   7.362
26128SOL    HW190443   8.509   0.018   7.367
26128SOL    HW290444   8.599   9.883   7.389
26129SOL     OW90445   8.308   9.841   7.533
26129SOL    HW190446   8.391   9.858   7.480
26129SOL    HW290447   8.293   9.742   7.540
26130SOL     OW90448   7.473   9.298   7.562
26130SOL    HW190449   7.546   9.231   7.581
26130SOL    HW290450   7.508   9.390   7.580
26131SOL     OW90451   7.901   9.897   8.519
26131SOL    HW190452   7.988   9.939   8.547
26131SOL    HW290453   7.861   9.848   8.597
26132SOL     OW90454   8.095   9.331   8.320
26132SOL    HW190455   8.049   9.246   8.346
26132SOL    HW290456   8.193   9.323   8.339
26133SOL     OW90457   7.462   0.187   8.453
26133SOL    HW190458   7.547   0.233   8.477
26133SOL    HW290459   7.468   0.090   8.476
26134SOL     OW90460   7.665   9.236   7.862
26134SOL    HW190461   7.716   9.321   7.868
26134SOL    HW290462   7.569   9.252   7.887
26135SOL     OW90463   7.637   0.071   8.730
26135SOL    HW190464   7.677   0.011   8.800
26135SOL    HW290465   7.589   0.146   8.775
26136SOL     OW90466   7.898   9.547   9.191
26136SOL    HW190467   7.957   9.541   9.111
26136SOL    HW290468   7.912   9.635   9.236
26137SOL     OW90469   7.934   9.991   7.686
26137SOL    HW190470   7.969   0.079   7.719
26137SOL    HW290471   7.838   9.982   7.711
26138SOL     OW90472   8.729   9.582   8.798
26138SOL    HW190473   8.792   9.554   8.870
26138SOL    HW290474   8.673   9.505   8.769
26139SOL     OW90475   7.405   9.315   7.896
26139SOL    HW190476   7.310   9.288   7.880
26139SOL    HW290477   7.419   9.409   7.866
26140SOL     OW90478   8.691   9.415   9.174
26140SOL    HW190479   8.725   9.370   9.257
26140SOL    HW290480   8.610   9.469   9.196
26141SOL     OW90481   8.326   9.764   8.494
26141SOL    HW190482   8.374   9.784   8.409
26141SOL    HW290483   8.392   9.734   8.563
26142SOL     OW90484   8.188   9.300   7.537
26142SOL    HW190485   8.261   9.232   7.533
26142SOL    HW290486   8.228   9.392   7.533
26143SOL     OW90487   7.872   9.777   8.128
26143SOL    HW190488   7.909   9.686   8.148
26143SOL    HW290489   7.913   9.812   8.044
26144SOL     OW90490   7.601   9.811   9.143
26144SOL    HW190491   7.578   9.715   9.131
26144SOL    HW290492   7.632   9.827   9.236
26145SOL     OW90493   8.071   9.708   8.392
26145SOL    HW190494   8.163   9.721   8.428
26145SOL    HW290495   8.015   9.787   8.417
26146SOL     OW90496   7.549   9.917   8.525
26146SOL    HW190497   7.588   9.971   8.600
26146SOL    HW290498   7.613   9.918   8.447
26147SOL     OW90499   8.043   9.534   7.887
26147SOL    HW190500   7.947   9.514   7.868
26147SOL    HW290501   8.055   9.546   7.985
26148SOL     OW90502   7.655   9.428   9.214
26148SOL    HW190503   7.588   9.474   9.156
26148SOL    HW290504   7.746   9.465   9.196
26149SOL     OW90505   7.964   9.298   9.363
26149SOL    HW190506   8.062   9.316   9.372
26149SOL    HW290507   7.921   9.373   9.312
26150SOL     OW90508   8.125   9.815   9.771
26150SOL    HW190509   8.131   9.912   9.748
26150SOL    HW290510   8.135   9.760   9.688
26151SOL     OW90511   8.416   9.551   9.659
26151SOL    HW190512   8.402   9.614   9.736
26151SOL    HW290513   8.446   9.462   9.694
26152SOL     OW90514   7.943   9.795   9.325
26152SOL    HW190515   7.950   9.890   9.295
26152SOL    HW290516   8.021   9.772   9.383
26153SOL     OW90517   8.496   9.485   9.397
26153SOL    HW190518   8.567   9.415   9.405
26153SOL    HW290519   8.474   9.522   9.487
26154SOL     OW90520   7.746   9.495   9.710
26154SOL    HW190521   7.663   9.522   9.760
26154SOL    HW290522   7.739   9.529   9.616
26155SOL     OW90523   8.344   9.694   9.883
26155SOL    HW190524   8.402   9.749   9.943
26155SOL    HW290525   8.264   9.748   9.856
26156SOL     OW90526   9.264   9.859   9.518
26156SOL    HW190527   9.347   9.810   9.544
26156SOL    HW290528   9.245   9.931   9.584
26157SOL     OW90529   8.733   9.724   9.688
26157SOL    HW190530   8.666   9.776   9.635
26157SOL    HW290531   8.825   9.744   9.654
26158SOL     OW90532   8.186   9.657   9.549
26158SOL    HW190533   8.114   9.592   9.570
26158SOL    HW290534   8.275   9.618   9.573
26159SOL     OW90535   8.300   0.184   9.845
26159SOL    HW190536   8.252   0.141   9.769
26159SOL    HW290537   8.247   0.170   9.929
26160SOL     OW90538   7.470   9.570   9.756
26160SOL    HW190539   7.458   9.600   9.661
26160SOL    HW290540   7.406   9.619   9.815
26161SOL     OW90541   8.184   9.233   9.663
26161SOL    HW190542   8.158   9.170   9.590
26161SOL    HW290543   8.128   9.316   9.656
26162SOL     OW90544   8.726   9.310   9.421
26162SOL    HW190545   8.733   9.211   9.431
26162SOL    HW290546   8.737   9.354   9.510
26163SOL     OW90547   8.162   9.482   9.922
26163SOL    HW190548   8.175   9.415   9.995
26163SOL    HW290549   8.245   9.537   9.913
26164SOL     OW90550   7.681   9.860   9.405
26164SOL    HW190551   7.778   9.846   9.383
26164SOL    HW290552   7.673   9.920   9.485
26165SOL     OW90553   7.692   9.584   9.461
26165SOL    HW190554   7.684   9.532   9.376
26165SOL    HW290555   7.677   9.682   9.442
26166SOL     OW90556   7.296   9.842   0.107
26166SOL    HW190557   7.272   9.932   0.072
26166SOL    HW290558   7.388   9.845   0.145
26167SOL     OW90559   8.313   9.910   9.479
26167SOL    HW190560   8.411   9.909   9.496
26167SOL    HW290561   8.277   9.817   9.485
26168SOL     OW90562   8.715   9.439   9.659
26168SOL    HW190563   8.651   9.399   9.725
26168SOL    HW290564   8.720   9.538   9.674
26169SOL     OW90565   7.480   9.354   9.418
26169SOL    HW190566   7.540   9.368   9.339
26169SOL    HW290567   7.533   9.316   9.494
26170SOL     OW90568   8.520   9.347   9.828
26170SOL    HW190569   8.547   9.378   9.919
26170SOL    HW290570   8.464   9.265   9.836
26171SOL     OW90571   7.632   9.254   9.623
26171SOL    HW190572   7.694   9.322   9.664
26171SOL    HW290573   7.550   9.246   9.680
26172SOL     OW90574   8.589   9.924   9.518
26172SOL    HW190575   8.619   9.993   9.584
26172SOL    HW290576   8.617   9.952   9.426
26173SOL     OW90577   7.915   0.064   9.561
26173SOL    HW190578   7.918   0.069   9.461
26173SOL    HW290579   7.820   0.051   9.590
26174SOL     OW90580   7.402   9.297   9.755
26174SOL    HW190581   7.305   9.283   9.735
26174SOL    HW290582   7.418   9.394   9.772
26175SOL     OW90583   8.940   9.698   0.131
26175SOL    HW190584   9.017   9.762   0.134
26175SOL    HW290585   8.975   9.605   0.144
26176SOL     OW90586   8.242   9.344   9.352
26176SOL    HW190587   8.287   9.258   9.375
26176SOL    HW290588   8.307   9.419   9.363
26177SOL     OW90589   7.970   9.673   9.947
26177SOL    HW190590   8.037   9.599   9.958
26177SOL    HW290591   8.005   9.740   9.882
26178SOL     OW90592   8.027   9.470   9.682
26178SOL    HW190593   7.928   9.475   9.695
26178SOL    HW290594   8.072   9.471   9.771
26179SOL     OW90595   8.712   9.697   9.971
26179SOL    HW190596   8.727   9.707   9.873
26179SOL    HW290597   8.799   9.705   0.019
26180SOL     OW90598   9.549   0.200   0.028
26180SOL    HW190599   9.461   0.162   0.057
26180SOL    HW290600   9.539   0.243   9.939
26181SOL     OW90601   9.859   1.484   0.370
26181SOL    HW190602   9.809   1.492   0.456
26181SOL    HW290603   9.957   1.480   0.389
26182SOL     OW90604   9.819   0.145   0.034
26182SOL    HW190605   9.857   0.096   9.955
26182SOL    HW290606   9.720   0.152   0.024
26183SOL     OW90607   9.790   1.202   0.628
26183SOL    HW190608   9.789   1.126   0.693
26183SOL    HW290609   9.874   1.199   0.574
26184SOL     OW90610   9.677   1.394   0.187
26184SOL    HW190611   9.667   1.463   0.115
26184SOL    HW290612   9.738   1.429   0.259
26185SOL     OW90613   9.379   0.929   1.576
26185SOL    HW190614   9.464   0.976   1.602
26185SOL    HW290615   9.330   0.900   1.658
26186SOL     OW90616   9.699   0.734   0.076
26186SOL    HW190617   9.690   0.825   0.034
26186SOL    HW290618   9.712   0.666   0.004
26187SOL     OW90619   9.868   1.575   0.805
26187SOL    HW190620   9.960   1.588   0.769
26187SOL    HW290621   9.810   1.536   0.734
26188SOL     OW90622   9.594   1.139   0.445
26188SOL    HW190623   9.654   1.165   0.521
26188SOL    HW290624   9.648   1.129   0.361
26189SOL     OW90625   9.619   0.207   0.498
26189SOL    HW190626   9.613   0.258   0.584
26189SOL    HW290627   9.588   0.265   0.423
26190SOL     OW90628   9.965   9.938   1.693
26190SOL    HW190629   0.000   9.886   1.614
26190SOL    HW290630   0.034   0.004   1.722
26191SOL     OW90631   9.921   1.198   1.683
26191SOL    HW190632   9.864   1.263   1.734
26191SOL    HW290633   9.955   1.127   1.745
26192SOL     OW90634   9.603   0.342   0.746
26192SOL    HW190635   9.521   0.384   0.785
26192SOL    HW290636   9.630   0.263   0.801
26193SOL     OW90637   9.359   1.508   0.380
26193SOL    HW190638   9.359   1.409   0.361
26193SOL    HW290639   9.428   1.552   0.323
26194SOL     OW90640   9.432   1.578   0.636
26194SOL    HW190641   9.346   1.602   0.680
26194SOL    HW290642   9.416   1.553   0.541
26195SOL     OW90643   9.691   0.988   9.987
26195SOL    HW190644   9.742   1.026   9.910
26195SOL    HW290645   9.697   1.050   0.065
26196SOL     OW90646   9.357   0.775   0.192
26196SOL    HW190647   9.432   0.722   0.230
26196SOL    HW290648   9.319   0.835   0.263
26197SOL     OW90649   0.057   1.749   1.160
26197SOL    HW190650   0.130   1.718   1.099
26197SOL    HW290651   9.972   1.702   1.137
26198SOL     OW90652   9.382   0.538   1.434
26198SOL    HW190653   9.386   0.439   1.424
26198SOL    HW290654   9.368   0.562   1.530
26199SOL     OW90655   9.341   0.247   1.377
26199SOL    HW190656   9.361   0.271   1.282
26199SOL    HW290657   9.243   0.233   1.389
26200SOL     OW90658   0.113   0.739   1.336
26200SOL    HW190659   0.017   0.748   1.366
26200SOL    HW290660   0.153   0.658   1.379
26201SOL     OW90661   9.275   1.837   1.400
26201SOL    HW190662   9.228   1.925   1.399
26201SOL    HW290663   9.273   1.800   1.493
26202SOL     OW90664   9.537   1.675   0.255
26202SOL    HW190665   9.611   1.678   0.188
26202SOL    HW290666   9.557   1.739   0.330
26203SOL     OW90667   9.366   1.241   0.339
26203SOL    HW190668   9.442   1.204   0.392
26203SOL    HW290669   9.342   1.176   0.266
26204SOL     OW90670   9.786   1.424   1.791
26204SOL    HW190671   9.728   1.475   1.727
26204SOL    HW290672   9.871   1.475   1.805
26205SOL     OW90673   9.603   1.042   1.681
26205SOL    HW190674   9.641   1.078   1.596
26205SOL    HW290675   9.569   1.117   1.738
26206SOL     OW90676   9.388   1.443   1.103
26206SOL    HW190677   9.341   1.411   1.021
26206SOL    HW290678   9.328   1.433   1.182
26207SOL     OW90679   9.948   1.528   1.448
26207SOL    HW190680   9.877   1.597   1.437
26207SOL    HW290681   9.950   1.469   1.367
26208SOL     OW90682   9.370   0.231   1.659
26208SOL    HW190683   9.361   0.235   1.559
26208SOL    HW290684   9.279   0.231   1.701
26209SOL     OW90685   9.280   1.727   1.656
26209SOL    HW190686   9.362   1.742   1.711
26209SOL    HW290687   9.199   1.744   1.711
26210SOL     OW90688   9.569   0.624   0.286
26210SOL    HW190689   9.621   0.657   0.207
26210SOL    HW290690   9.626   0.626   0.367
26211SOL     OW90691   9.579   1.751   0.805
26211SOL    HW190692   9.530   1.701   0.734
26211SOL    HW290693   9.677   1.731   0.798
26212SOL     OW90694   9.656   1.432   1.201
26212SOL    HW190695   9.636   1.425   1.299
26212SOL    HW290696   9.570   1.430   1.150
26213SOL     OW90697   9.530   0.346   0.280
26213SOL    HW190698   9.552   0.307   0.191
26213SOL    HW290699   9.538   0.446   0.276
26214SOL     OW90700   9.360   0.432   0.871
26214SOL    HW190701   9.306   0.516   0.883
26214SOL    HW290702   9.362   0.382   0.957
26215SOL     OW90703   9.752   1.138   0.217
26215SOL    HW190704   9.851   1.145   0.207
26215SOL    HW290705   9.711   1.228   0.205
26216SOL     OW90706   9.315   0.104   0.156
26216SOL    HW190707   9.255   0.024   0.152
26216SOL    HW290708   9.370   0.101   0.240
26217SOL     OW90709   9.959   1.093   1.437
26217SOL    HW190710   0.055   1.066   1.431
26217SOL    HW290711   9.940   1.132   1.527
26218SOL     OW90712   9.691   0.130   0.892
26218SOL    HW190713   9.652   0.039   0.906
26218SOL    HW290714   9.779   0.137   0.938
26219SOL     OW90715   9.521   1.825   1.276
26219SOL    HW190716   9.500   1.787   1.186
26219SOL    HW290717   9.438   1.830   1.330
26220SOL     OW90718   9.437   0.019   0.400
26220SOL    HW190719   9.504   0.082   0.441
26220SOL    HW290720   9.348   0.031   0.444
26221SOL     OW90721   9.948   0.763   1.693
26221SOL    HW190722   9.916   0.764   1.598
26221SOL    HW290723   0.012   0.687   1.705
26222SOL     OW90724   9.348   1.062   0.126
26222SOL    HW190725   9.387   0.971   0.108
26222SOL    HW290726   9.401   1.131   0.077
26223SOL     OW90727   9.586   0.736   1.483
26223SOL    HW190728   9.532   0.663   1.443
26223SOL    HW290729   9.526   0.813   1.508
26224SOL     OW90730   0.033   1.542   0.039
26224SOL    HW190731   9.967   1.562   0.111
26224SOL    HW290732   0.091   1.466   0.067
26225SOL     OW90733   9.818   1.632   1.069
26225SOL    HW190734   9.834   1.603   0.975
26225SOL    HW290735   9.760   1.564   1.116
26226SOL     OW90736   9.251   0.846   1.799
26226SOL    HW190737   9.155   0.875   1.798
26226SOL    HW290738   9.279   0.829   1.893
26227SOL     OW90739   9.631   0.574   1.739
26227SOL    HW190740   9.655   0.627   1.657
26227SOL    HW290741   9.689   0.603   1.815
26228SOL     OW90742   9.831   0.873   0.270
26228SOL    HW190743   9.785   0.961   0.262
26228SOL    HW290744   9.788   0.808   0.207
26229SOL     OW90745   9.190   0.074   0.505
26229SOL    HW190746   9.098   0.043   0.481
26229SOL    HW290747   9.183   0.146   0.575
26230SOL     OW90748   9.638   1.596   1.634
26230SOL    HW190749   9.591   1.659   1.695
26230SOL    HW290750   9.680   1.648   1.559
26231SOL     OW90751   9.707   1.473   0.608
26231SOL    HW190752   9.716   1.374   0.619
26231SOL    HW290753   9.610   1.499   0.616
26232SOL     OW90754   9.508   1.775   1.808
26232SOL    HW190755   9.530   1.871   1.790
26232SOL    HW290756   9.513   1.758   1.906
26233SOL     OW90757   9.362   1.282   1.611
26233SOL    HW190758   9.320   1.201   1.570
26233SOL    HW290759   9.301   1.360   1.602
26234SOL     OW90760   9.437   1.713   1.040
26234SOL    HW190761   9.429   1.614   1.055
26234SOL    HW290762   9.486   1.730   0.955
26235SOL     OW90763   9.865   0.449   0.752
26235SOL    HW190764   9.772   0.412   0.754
26235SOL    HW290765   9.874   0.513   0.677
26236SOL     OW90766   9.686   1.132   1.440
26236SOL    HW190767   9.784   1.122   1.422
26236SOL    HW290768   9.661   1.228   1.435
26237SOL     OW90769   9.479   1.281   0.024
26237SOL    HW190770   9.431   1.356   9.978
26237SOL    HW290771   9.533   1.317   0.099
26238SOL     OW90772   9.741   1.721   1.413
26238SOL    HW190773   9.808   1.795   1.413
26238SOL    HW290774   9.662   1.747   1.357
26239SOL     OW90775   9.359   0.610   1.699
26239SOL    HW190776   9.454   0.590   1.724
26239SOL    HW290777   9.332   0.697   1.739
26240SOL     OW90778   9.857   0.804   1.435
26240SOL    HW190779   9.760   0.779   1.442
26240SOL    HW290780   9.866   0.903   1.429
26241SOL     OW90781   9.924   1.345   1.236
26241SOL    HW190782   9.829   1.366   1.214
26241SOL    HW290783   9.930   1.254   1.275
26242SOL     OW90784   9.581   1.386   1.467
26242SOL    HW190785   9.610   1.464   1.522
26242SOL    HW290786   9.502   1.342   1.509
26243SOL     OW90787   9.569   0.317   1.827
26243SOL    HW190788   9.500   0.276   1.767
26243SOL    HW290789   9.596   0.406   1.791
26244SOL     OW90790   9.795   1.496   2.245
26244SOL    HW190791   9.747   1.496   2.333
26244SOL    HW290792   9.889   1.464   2.258
26245SOL     OW90793   9.825   0.236   1.905
26245SOL    HW190794   9.829   0.138   1.924
26245SOL    HW290795   9.733   0.261   1.877
26246SOL     OW90796   9.675   1.184   2.472
26246SOL    HW190797   9.656   1.151   2.564
26246SOL    HW290798   9.712   1.110   2.416
26247SOL     OW90799   9.668   1.374   2.031
26247SOL    HW190800   9.710   1.396   1.942
26247SOL    HW290801   9.712   1.429   2.102
26248SOL     OW90802   9.773   0.328   2.889
26248SOL    HW190803   9.838   0.405   2.893
26248SOL    HW290804   9.822   0.243   2.907
26249SOL     OW90805   9.554   0.785   2.339
26249SOL    HW190806   9.588   0.804   2.432
26249SOL    HW290807   9.457   0.764   2.344
26250SOL     OW90808   9.763   0.666   1.966
26250SOL    HW190809   9.744   0.760   1.939
26250SOL    HW290810   9.851   0.663   2.014
26251SOL     OW90811   9.870   1.619   2.622
26251SOL    HW190812   9.956   1.623   2.571
26251SOL    HW290813   9.806   1.557   2.576
26252SOL     OW90814   9.525   1.306   2.269
26252SOL    HW190815   9.581   1.261   2.338
26252SOL    HW290816   9.572   1.303   2.181
26253SOL     OW90817   9.535   0.591   3.083
26253SOL    HW190818   9.521   0.511   3.024
26253SOL    HW290819   9.509   0.674   3.033
26254SOL     OW90820   9.591   0.203   2.303
26254SOL    HW190821   9.549   0.250   2.380
26254SOL    HW290822   9.575   0.256   2.219
26255SOL     OW90823   9.969   0.026   3.528
26255SOL    HW190824   9.942   9.961   3.457
26255SOL    HW290825   0.023   9.979   3.598
26256SOL     OW90826   9.888   1.230   3.553
26256SOL    HW190827   9.834   1.306   3.588
26256SOL    HW290828   9.874   1.150   3.611
26257SOL     OW90829   9.300   0.715   2.413
26257SOL    HW190830   9.323   0.657   2.492
26257SOL    HW290831   9.270   0.805   2.445
26258SOL     OW90832   9.637   0.201   2.668
26258SOL    HW190833   9.684   0.247   2.742
26258SOL    HW290834   9.665   0.105   2.664
26259SOL     OW90835   9.550   0.274   3.046
26259SOL    HW190836   9.557   0.188   3.097
26259SOL    HW290837   9.636   0.290   2.998
26260SOL     OW90838   9.444   1.569   2.257
26260SOL    HW190839   9.474   1.474   2.255
26260SOL    HW290840   9.494   1.621   2.187
26261SOL     OW90841   9.429   1.578   2.538
26261SOL    HW190842   9.336   1.600   2.567
26261SOL    HW290843   9.436   1.589   2.439
26262SOL     OW90844   9.694   0.918   1.909
26262SOL    HW190845   9.665   0.952   1.820
26262SOL    HW290846   9.725   0.995   1.965
26263SOL     OW90847   9.327   0.783   2.051
26263SOL    HW190848   9.407   0.725   2.065
26263SOL    HW290849   9.250   0.746   2.102
26264SOL     OW90850   0.051   1.826   2.921
26264SOL    HW190851   0.143   1.787   2.915
26264SOL    HW290852   9.984   1.752   2.925
26265SOL     OW90853   9.564   0.583   3.356
26265SOL    HW190854   9.550   0.585   3.257
26265SOL    HW290855   9.499   0.518   3.397
26266SOL     OW90856   9.382   0.313   3.267
26266SOL    HW190857   9.450   0.327   3.195
26266SOL    HW290858   9.292   0.297   3.226
26267SOL     OW90859   9.616   1.091   2.729
26267SOL    HW190860   9.524   1.129   2.729
26267SOL    HW290861   9.641   1.067   2.823
26268SOL     OW90862   9.291   0.321   2.285
26268SOL    HW190863   9.351   0.338   2.207
26268SOL    HW290864   9.344   0.327   2.369
26269SOL     OW90865   9.957   0.856   3.168
26269SOL    HW190866   9.951   0.925   3.240
26269SOL    HW290867   0.012   0.779   3.201
26270SOL     OW90868   9.282   1.833   3.241
26270SOL    HW190869   9.235   1.921   3.238
26270SOL    HW290870   9.281   1.798   3.335
26271SOL     OW90871   9.588   0.512   2.778
26271SOL    HW190872   9.647   0.549   2.706
26271SOL    HW290873   9.638   0.441   2.828
26272SOL     OW90874   9.552   1.794   2.103
26272SOL    HW190875   9.630   1.837   2.058
26272SOL    HW290876   9.554   1.814   2.201
26273SOL     OW90877   9.337   1.149   2.779
26273SOL    HW190878   9.249   1.175   2.738
26273SOL    HW290879   9.348   1.050   2.775
26274SOL     OW90880   9.289   1.166   2.306
26274SOL    HW190881   9.367   1.227   2.312
26274SOL    HW290882   9.287   1.122   2.216
26275SOL     OW90883   9.753   1.446   3.661
26275SOL    HW190884   9.700   1.497   3.593
26275SOL    HW290885   9.838   1.496   3.681
26276SOL     OW90886   9.620   1.021   3.510
26276SOL    HW190887   9.650   1.041   3.416
26276SOL    HW290888   9.563   1.097   3.543
26277SOL     OW90889   9.367   1.360   2.960
26277SOL    HW190890   9.353   1.286   2.893
26277SOL    HW290891   9.300   1.351   3.034
26278SOL     OW90892   9.897   1.489   3.273
26278SOL    HW190893   9.846   1.573   3.255
26278SOL    HW290894   9.913   1.441   3.186
26279SOL     OW90895   9.347   0.323   3.539
26279SOL    HW190896   9.359   0.320   3.440
26279SOL    HW290897   9.260   0.280   3.564
26280SOL     OW90898   9.284   1.727   3.498
26280SOL    HW190899   9.366   1.753   3.549
26280SOL    HW290900   9.205   1.729   3.558
26281SOL     OW90901   9.449   0.326   2.514
26281SOL    HW190902   9.421   0.412   2.555
26281SOL    HW290903   9.513   0.279   2.575
26282SOL     OW90904   9.544   0.621   2.120
26282SOL    HW190905   9.622   0.630   2.058
26282SOL    HW290906   9.559   0.677   2.201
26283SOL     OW90907   9.776   1.870   2.557
26283SOL    HW190908   9.706   1.863   2.486
26283SOL    HW290909   9.801   1.779   2.588
26284SOL     OW90910   9.626   1.322   3.039
26284SOL    HW190911   9.628   1.340   3.137
26284SOL    HW290912   9.537   1.348   3.002
26285SOL     OW90913   9.622   0.832   2.599
26285SOL    HW190914   9.660   0.908   2.650
26285SOL    HW290915   9.681   0.752   2.609
26286SOL     OW90916   9.487   0.354   2.086
26286SOL    HW190917   9.519   0.332   1.994
26286SOL    HW290918   9.502   0.451   2.104
26287SOL     OW90919   9.359   0.558   2.633
26287SOL    HW190920   9.276   0.587   2.680
26287SOL    HW290921   9.434   0.551   2.700
26288SOL     OW90922   9.781   1.126   2.069
26288SOL    HW190923   9.879   1.147   2.065
26288SOL    HW290924   9.729   1.209   2.049
26289SOL     OW90925   9.988   0.686   2.142
26289SOL    HW190926   0.078   0.648   2.119
26289SOL    HW290927   9.962   0.656   2.233
26290SOL     OW90928   9.292   0.135   2.005
26290SOL    HW190929   9.264   0.087   2.088
26290SOL    HW290930   9.370   0.193   2.025
26291SOL     OW90931   9.620   1.045   3.007
26291SOL    HW190932   9.660   1.020   3.095
26291SOL    HW290933   9.608   1.145   3.004
26292SOL     OW90934   9.807   0.647   3.048
26292SOL    HW190935   9.841   0.730   3.091
26292SOL    HW290936   9.711   0.634   3.072
26293SOL     OW90937   9.978   1.073   3.346
26293SOL    HW190938   0.076   1.062   3.362
26293SOL    HW290939   9.939   1.134   3.416
26294SOL     OW90940   9.916   0.100   2.929
26294SOL    HW190941   9.877   0.015   2.961
26294SOL    HW290942   9.963   0.085   2.842
26295SOL     OW90943   9.509   1.806   3.085
26295SOL    HW190944   9.482   1.748   3.008
26295SOL    HW290945   9.431   1.817   3.147
26296SOL     OW90946   9.470   9.952   2.301
26296SOL    HW190947   9.517   0.040   2.297
26296SOL    HW290948   9.371   9.966   2.294
26297SOL     OW90949   9.922   0.671   3.633
26297SOL    HW190950   9.860   0.715   3.568
26297SOL    HW290951   0.015   0.671   3.597
26298SOL     OW90952   9.333   1.064   2.048
26298SOL    HW190953   9.351   0.966   2.048
26298SOL    HW290954   9.391   1.109   1.980
26299SOL     OW90955   0.006   1.575   1.844
26299SOL    HW190956   9.973   1.622   1.926
26299SOL    HW290957   0.076   1.509   1.870
26300SOL     OW90958   9.889   1.609   2.898
26300SOL    HW190959   9.876   1.612   2.799
26300SOL    HW290960   9.853   1.523   2.934
26301SOL     OW90961   9.374   0.884   2.700
26301SOL    HW190962   9.462   0.857   2.661
26301SOL    HW290963   9.313   0.916   2.628
26302SOL     OW90964   9.777   0.436   3.656
26302SOL    HW190965   9.825   0.374   3.594
26302SOL    HW290966   9.822   0.526   3.655
26303SOL     OW90967   9.754   0.977   2.301
26303SOL    HW190968   9.763   1.023   2.213
26303SOL    HW290969   9.682   0.908   2.296
26304SOL     OW90970   9.215   0.055   2.261
26304SOL    HW190971   9.127   0.029   2.300
26304SOL    HW290972   9.232   0.152   2.279
26305SOL     OW90973   9.629   1.603   3.477
26305SOL    HW190974   9.584   1.675   3.530
26305SOL    HW290975   9.661   1.640   3.390
26306SOL     OW90976   9.683   1.463   2.498
26306SOL    HW190977   9.678   1.363   2.498
26306SOL    HW290978   9.594   1.500   2.523
26307SOL     OW90979   9.513   1.802   3.635
26307SOL    HW190980   9.551   1.893   3.618
26307SOL    HW290981   9.518   1.783   3.733
26308SOL     OW90982   9.425   1.290   3.485
26308SOL    HW190983   9.398   1.212   3.427
26308SOL    HW290984   9.362   1.366   3.469
26309SOL     OW90985   9.396   1.629   2.888
26309SOL    HW190986   9.389   1.532   2.913
26309SOL    HW290987   9.420   1.636   2.791
26310SOL     OW90988   9.745   0.582   2.562
26310SOL    HW190989   9.702   0.518   2.499
26310SOL    HW290990   9.836   0.605   2.530
26311SOL     OW90991   9.718   1.087   3.265
26311SOL    HW190992   9.816   1.075   3.282
26311SOL    HW290993   9.694   1.184   3.274
26312SOL     OW90994   9.480   1.220   1.858
26312SOL    HW190995   9.432   1.258   1.780
26312SOL    HW290996   9.525   1.294   1.909
26313SOL     OW90997   9.893   1.686   2.062
26313SOL    HW190998   9.845   1.771   2.042
26313SOL    HW290999   9.846   1.637   2.135
26314SOL     OW91000   9.725   1.708   3.237
26314SOL    HW191001   9.788   1.785   3.249
26314SOL    HW291002   9.651   1.735   3.175
26315SOL     OW91003   9.226   0.965   2.489
26315SOL    HW191004   9.256   1.038   2.427
26315SOL    HW291005   9.128   0.976   2.508
26316SOL     OW91006   9.740   0.768   3.455
26316SOL    HW191007   9.678   0.699   3.419
26316SOL    HW291008   9.690   0.853   3.473
26317SOL     OW91009   0.020   0.534   2.933
26317SOL    HW191010   0.093   0.602   2.939
26317SOL    HW291011   9.936   0.571   2.973
26318SOL     OW91012   9.902   1.337   3.031
26318SOL    HW191013   9.803   1.325   3.027
26318SOL    HW291014   9.947   1.248   3.028
26319SOL     OW91015   9.458   0.820   2.952
26319SOL    HW191016   9.513   0.898   2.981
26319SOL    HW291017   9.423   0.836   2.859
26320SOL     OW91018   9.652   1.347   3.310
26320SOL    HW191019   9.732   1.405   3.325
26320SOL    HW291020   9.584   1.364   3.382
26321SOL     OW91021   9.540   0.323   3.730
26321SOL    HW191022   9.468   0.327   3.661
26321SOL    HW291023   9.619   0.376   3.700
26322SOL     OW91024   9.691   1.542   4.123
26322SOL    HW191025   9.600   1.564   4.159
26322SOL    HW291026   9.752   1.519   4.199
26323SOL     OW91027   9.721   0.121   3.787
26323SOL    HW191028   9.791   0.179   3.830
26323SOL    HW291029   9.642   0.178   3.762
26324SOL     OW91030   9.638   1.379   3.904
26324SOL    HW191031   9.678   1.408   3.818
26324SOL    HW291032   9.659   1.447   3.975
26325SOL     OW91033   9.778   0.357   4.733
26325SOL    HW191034   9.857   0.418   4.726
26325SOL    HW291035   9.806   0.263   4.711
26326SOL     OW91036   9.903   0.744   3.899
26326SOL    HW191037   9.908   0.721   3.802
26326SOL    HW291038   9.965   0.685   3.951
26327SOL     OW91039   9.905   1.487   4.314
26327SOL    HW191040   9.970   1.562   4.327
26327SOL    HW291041   9.951   1.411   4.269
26328SOL     OW91042   9.506   1.268   4.162
26328SOL    HW191043   9.546   1.177   4.173
26328SOL    HW291044   9.544   1.311   4.080
26329SOL     OW91045   9.464   0.456   4.993
26329SOL    HW191046   9.504   0.385   4.935
26329SOL    HW291047   9.428   0.530   4.935
26330SOL     OW91048   9.607   0.178   4.180
26330SOL    HW191049   9.583   0.211   4.271
26330SOL    HW291050   9.586   0.249   4.113
26331SOL     OW91051   9.939   0.053   5.324
26331SOL    HW191052   9.927   9.981   5.256
26331SOL    HW291053   9.984   0.015   5.405
26332SOL     OW91054   9.898   1.023   5.495
26332SOL    HW191055   9.900   1.083   5.575
26332SOL    HW291056   9.975   0.960   5.498
26333SOL     OW91057   9.541   0.167   4.565
26333SOL    HW191058   9.551   0.192   4.661
26333SOL    HW291059   9.572   0.073   4.551
26334SOL     OW91060   9.558   0.227   4.861
26334SOL    HW191061   9.566   0.156   4.931
26334SOL    HW291062   9.649   0.261   4.838
26335SOL     OW91063   9.827   1.008   3.697
26335SOL    HW191064   9.748   0.989   3.640
26335SOL    HW291065   9.797   1.037   3.788
26336SOL     OW91066   9.570   0.644   5.173
26336SOL    HW191067   9.539   0.571   5.112
26336SOL    HW291068   9.520   0.639   5.260
26337SOL     OW91069   9.350   0.257   5.148
26337SOL    HW191070   9.390   0.334   5.099
26337SOL    HW291071   9.252   0.254   5.129
26338SOL     OW91072   9.281   1.844   5.080
26338SOL    HW191073   9.239   1.934   5.078
26338SOL    HW291074   9.280   1.809   5.174
26339SOL     OW91075   9.534   0.478   4.679
26339SOL    HW191076   9.500   0.428   4.599
26339SOL    HW291077   9.627   0.446   4.701
26340SOL     OW91078   9.539   1.816   3.916
26340SOL    HW191079   9.628   1.855   3.892
26340SOL    HW291080   9.533   1.805   4.015
26341SOL     OW91081   9.221   1.204   4.677
26341SOL    HW191082   9.141   1.181   4.621
26341SOL    HW291083   9.249   1.124   4.729
26342SOL     OW91084   9.222   1.314   4.117
26342SOL    HW191085   9.313   1.313   4.159
26342SOL    HW291086   9.216   1.243   4.047
26343SOL     OW91087   9.371   0.327   5.412
26343SOL    HW191088   9.369   0.293   5.317
26343SOL    HW291089   9.285   0.301   5.457
26344SOL     OW91090   9.265   1.748   5.347
26344SOL    HW191091   9.334   1.781   5.412
26344SOL    HW291092   9.178   1.738   5.393
26345SOL     OW91093   9.683   0.600   4.026
26345SOL    HW191094   9.755   0.618   3.959
26345SOL    HW291095   9.655   0.686   4.068
26346SOL     OW91096   9.745   1.820   4.359
26346SOL    HW191097   9.670   1.833   4.294
26346SOL    HW291098   9.741   1.728   4.398
26347SOL     OW91099   9.544   1.432   4.857
26347SOL    HW191100   9.469   1.442   4.923
26347SOL    HW291101   9.522   1.485   4.774
26348SOL     OW91102   9.543   0.368   4.001
26348SOL    HW191103   9.530   0.351   3.903
26348SOL    HW291104   9.590   0.455   4.014
26349SOL     OW91105   9.774   1.142   3.938
26349SOL    HW191106   9.871   1.166   3.943
26349SOL    HW291107   9.719   1.225   3.926
26350SOL     OW91108   0.083   0.608   4.051
26350SOL    HW191109   0.166   0.602   3.996
26350SOL    HW291110   0.064   0.519   4.092
26351SOL     OW91111   9.219   0.031   3.870
26351SOL    HW191112   9.301   0.027   3.927
26351SOL    HW291113   9.233   0.097   3.796
26352SOL     OW91114   9.513   1.149   4.886
26352SOL    HW191115   9.592   1.120   4.941
26352SOL    HW291116   9.526   1.244   4.858
26353SOL     OW91117   9.914   0.988   5.224
26353SOL    HW191118   0.014   0.989   5.214
26353SOL    HW291119   9.890   1.011   5.318
26354SOL     OW91120   9.859   0.099   4.701
26354SOL    HW191121   9.838   0.022   4.761
26354SOL    HW291122   9.897   0.066   4.615
26355SOL     OW91123   9.464   1.871   4.870
26355SOL    HW191124   9.475   1.787   4.817
26355SOL    HW291125   9.407   1.852   4.951
26356SOL     OW91126   9.297   0.989   4.845
26356SOL    HW191127   9.378   1.045   4.861
26356SOL    HW291128   9.325   0.896   4.822
26357SOL     OW91129   9.428   0.003   4.052
26357SOL    HW191130   9.504   0.061   4.080
26357SOL    HW291131   9.357   0.004   4.123
26358SOL     OW91132   9.970   0.627   5.459
26358SOL    HW191133   9.917   0.660   5.381
26358SOL    HW291134   0.054   0.583   5.427
26359SOL     OW91135   9.253   1.111   3.928
26359SOL    HW191136   9.306   1.030   3.955
26359SOL    HW291137   9.307   1.164   3.862
26360SOL     OW91138   9.570   0.824   4.967
26360SOL    HW191139   9.574   0.765   5.048
26360SOL    HW291140   9.617   0.910   4.986
26361SOL     OW91141   9.985   1.577   3.722
26361SOL    HW191142   9.948   1.614   3.807
26361SOL    HW291143   0.054   1.508   3.743
26362SOL     OW91144   9.761   1.567   4.547
26362SOL    HW191145   9.798   1.520   4.467
26362SOL    HW291146   9.788   1.518   4.630
26363SOL     OW91147   9.795   0.414   5.490
26363SOL    HW191148   9.804   0.372   5.399
26363SOL    HW291149   9.854   0.494   5.495
26364SOL     OW91150   9.714   0.891   4.037
26364SOL    HW191151   9.726   0.987   4.013
26364SOL    HW291152   9.782   0.836   3.987
26365SOL     OW91153   9.240   0.044   4.246
26365SOL    HW191154   9.142   0.057   4.229
26365SOL    HW291155   9.260   0.061   4.342
26366SOL     OW91156   9.428   1.854   5.552
26366SOL    HW191157   9.489   1.928   5.526
26366SOL    HW291158   9.469   1.800   5.626
26367SOL     OW91159   9.696   1.057   5.072
26367SOL    HW191160   9.786   1.033   5.110
26367SOL    HW291161   9.638   1.093   5.145
26368SOL     OW91162   9.423   1.251   3.766
26368SOL    HW191163   9.426   1.274   3.669
26368SOL    HW291164   9.495   1.301   3.814
26369SOL     OW91165   9.856   1.673   3.939
26369SOL    HW191166   9.823   1.764   3.913
26369SOL    HW291167   9.797   1.635   4.010
26370SOL     OW91168   9.417   0.595   5.394
26370SOL    HW191169   9.410   0.496   5.405
26370SOL    HW291170   9.404   0.639   5.483
26371SOL     OW91171   9.831   0.720   5.250
26371SOL    HW191172   9.738   0.697   5.219
26371SOL    HW291173   9.851   0.814   5.225
26372SOL     OW91174   0.004   0.514   4.708
26372SOL    HW191175   0.096   0.489   4.679
26372SOL    HW291176   9.993   0.613   4.704
26373SOL     OW91177   9.815   1.427   4.794
26373SOL    HW191178   9.720   1.439   4.823
26373SOL    HW291179   9.850   1.341   4.832
26374SOL     OW91180   9.397   0.672   4.824
26374SOL    HW191181   9.463   0.733   4.867
26374SOL    HW291182   9.443   0.616   4.755
26375SOL     OW91183   9.572   0.299   5.592
26375SOL    HW191184   9.497   0.304   5.526
26375SOL    HW291185   9.650   0.351   5.559
26376SOL     OW91186   9.901   1.528   5.977
26376SOL    HW191187   9.843   1.477   6.040
26376SOL    HW291188   9.989   1.482   5.967
26377SOL     OW91189   9.765   0.106   5.616
26377SOL    HW191190   9.846   0.165   5.610
26377SOL    HW291191   9.682   0.162   5.612
26378SOL     OW91192   9.813   1.255   6.383
26378SOL    HW191193   9.739   1.195   6.414
26378SOL    HW291194   9.778   1.316   6.311
26379SOL     OW91195   9.798   0.333   6.604
26379SOL    HW191196   9.882   0.385   6.616
26379SOL    HW291197   9.820   0.240   6.573
26380SOL     OW91198   9.365   0.959   7.096
26380SOL    HW191199   9.460   0.954   7.064
26380SOL    HW291200   9.356   0.908   7.181
26381SOL     OW91201   9.783   0.719   5.789
26381SOL    HW191202   9.784   0.733   5.690
26381SOL    HW291203   9.864   0.668   5.816
26382SOL     OW91204   9.569   0.560   6.774
26382SOL    HW191205   9.553   0.464   6.750
26382SOL    HW291206   9.516   0.619   6.713
26383SOL     OW91207   9.637   0.186   6.017
26383SOL    HW191208   9.639   0.209   6.114
26383SOL    HW291209   9.593   0.260   5.966
26384SOL     OW91210   9.864   9.966   7.205
26384SOL    HW191211   9.803   9.888   7.223
26384SOL    HW291212   9.931   9.973   7.279
26385SOL     OW91213   9.480   0.665   6.101
26385SOL    HW191214   9.443   0.603   6.171
26385SOL    HW291215   9.447   0.757   6.118
26386SOL     OW91216   9.642   0.218   6.306
26386SOL    HW191217   9.644   0.307   6.352
26386SOL    HW291218   9.694   0.152   6.359
26387SOL     OW91219   9.543   0.294   6.705
26387SOL    HW191220   9.537   0.214   6.765
26387SOL    HW291221   9.636   0.301   6.668
26388SOL     OW91222   9.384   1.562   5.852
26388SOL    HW191223   9.387   1.483   5.791
26388SOL    HW291224   9.449   1.632   5.821
26389SOL     OW91225   9.487   1.552   6.113
26389SOL    HW191226   9.453   1.636   6.155
26389SOL    HW291227   9.450   1.544   6.020
26390SOL     OW91228   9.357   0.703   5.633
26390SOL    HW191229   9.415   0.674   5.709
26390SOL    HW291230   9.292   0.772   5.666
26391SOL     OW91231   9.563   0.650   7.029
26391SOL    HW191232   9.565   0.615   6.935
26391SOL    HW291233   9.474   0.628   7.071
26392SOL     OW91234   9.613   1.069   6.466
26392SOL    HW191235   9.514   1.081   6.469
26392SOL    HW291236   9.637   1.001   6.397
26393SOL     OW91237   9.268   0.287   5.990
26393SOL    HW191238   9.336   0.309   5.920
26393SOL    HW291239   9.311   0.288   6.080
26394SOL     OW91240   9.920   0.876   6.886
26394SOL    HW191241   9.900   0.968   6.920
26394SOL    HW291242   0.017   0.869   6.863
26395SOL     OW91243   9.639   0.467   6.426
26395SOL    HW191244   9.689   0.530   6.367
26395SOL    HW291245   9.697   0.438   6.503
26396SOL     OW91246   9.560   1.759   5.776
26396SOL    HW191247   9.640   1.796   5.729
26396SOL    HW291248   9.548   1.806   5.863
26397SOL     OW91249   9.332   1.077   6.471
26397SOL    HW191250   9.284   1.158   6.437
26397SOL    HW291251   9.296   1.052   6.560
26398SOL     OW91252   9.997   1.433   7.035
26398SOL    HW191253   0.009   1.531   7.053
26398SOL    HW291254   9.970   1.419   6.940
26399SOL     OW91255   9.259   1.623   7.278
26399SOL    HW191256   9.339   1.681   7.293
26399SOL    HW291257   9.176   1.671   7.308
26400SOL     OW91258   9.384   0.291   6.233
26400SOL    HW191259   9.379   0.384   6.270
26400SOL    HW291260   9.471   0.249   6.260
26401SOL     OW91261   9.523   0.634   5.838
26401SOL    HW191262   9.617   0.661   5.818
26401SOL    HW291263   9.505   0.646   5.935
26402SOL     OW91264   9.645   0.879   6.260
26402SOL    HW191265   9.671   0.911   6.169
26402SOL    HW291266   9.684   0.789   6.276
26403SOL     OW91267   9.497   0.359   5.847
26403SOL    HW191268   9.522   0.324   5.756
26403SOL    HW291269   9.498   0.459   5.845
26404SOL     OW91270   9.395   0.544   6.333
26404SOL    HW191271   9.365   0.635   6.361
26404SOL    HW291272   9.475   0.518   6.386
26405SOL     OW91273   0.019   0.601   5.869
26405SOL    HW191274   0.078   0.531   5.828
26405SOL    HW291275   0.012   0.585   5.967
26406SOL     OW91276   9.224   0.073   5.713
26406SOL    HW191277   9.172   0.009   5.770
26406SOL    HW291278   9.317   0.081   5.747
26407SOL     OW91279   9.525   0.968   6.742
26407SOL    HW191280   9.566   0.973   6.833
26407SOL    HW291281   9.587   1.007   6.675
26408SOL     OW91282   9.814   0.677   6.718
26408SOL    HW191283   9.837   0.754   6.777
26408SOL    HW291284   9.724   0.641   6.742
26409SOL     OW91285   9.844   0.079   6.513
26409SOL    HW191286   9.822   0.000   6.571
26409SOL    HW291287   9.923   0.058   6.456
26410SOL     OW91288   9.252   1.005   6.720
26410SOL    HW191289   9.349   0.992   6.742
26410SOL    HW291290   9.196   0.971   6.796
26411SOL     OW91291   9.476   9.992   5.905
26411SOL    HW191292   9.538   0.064   5.937
26411SOL    HW291293   9.405   9.977   5.974
26412SOL     OW91294   9.910   0.685   7.318
26412SOL    HW191295   9.852   0.724   7.247
26412SOL    HW291296   9.989   0.640   7.276
26413SOL     OW91297   9.394   0.829   6.364
26413SOL    HW191298   9.485   0.847   6.326
26413SOL    HW291299   9.353   0.915   6.393
26414SOL     OW91300   9.269   0.841   7.329
26414SOL    HW191301   9.183   0.890   7.338
26414SOL    HW291302   9.311   0.829   7.419
26415SOL     OW91303   9.752   0.902   5.998
26415SOL    HW191304   9.766   0.994   5.960
26415SOL    HW291305   9.755   0.834   5.925
26416SOL     OW91306   9.286   9.968   6.101
26416SOL    HW191307   9.316   9.912   6.178
26416SOL    HW291308   9.247   0.054   6.136
26417SOL     OW91309   9.728   1.451   6.198
26417SOL    HW191310   9.770   1.532   6.238
26417SOL    HW291311   9.637   1.474   6.164
26418SOL     OW91312   9.472   1.787   7.343
26418SOL    HW191313   9.510   1.879   7.328
26418SOL    HW291314   9.490   1.759   7.437
26419SOL     OW91315   9.409   1.190   7.254
26419SOL    HW191316   9.387   1.114   7.193
26419SOL    HW291317   9.335   1.256   7.253
26420SOL     OW91318   9.742   0.622   6.226
26420SOL    HW191319   9.673   0.616   6.154
26420SOL    HW291320   9.832   0.601   6.188
26421SOL     OW91321   9.904   1.792   5.900
26421SOL    HW191322   9.823   1.812   5.844
26421SOL    HW291323   9.901   1.696   5.929
26422SOL     OW91324   9.773   0.800   7.104
26422SOL    HW191325   9.697   0.740   7.082
26422SOL    HW291326   9.834   0.806   7.025
26423SOL     OW91327   0.005   0.523   6.610
26423SOL    HW191328   0.090   0.562   6.645
26423SOL    HW291329   9.927   0.578   6.642
26424SOL     OW91330   9.935   1.290   6.797
26424SOL    HW191331   9.892   1.251   6.715
26424SOL    HW291332   9.927   1.226   6.873
26425SOL     OW91333   9.441   0.737   6.620
26425SOL    HW191334   9.466   0.820   6.671
26425SOL    HW291335   9.413   0.763   6.527
26426SOL     OW91336   9.828   1.523   7.784
26426SOL    HW191337   9.767   1.527   7.862
26426SOL    HW291338   9.921   1.503   7.815
26427SOL     OW91339   9.851   0.156   7.464
26427SOL    HW191340   9.938   0.110   7.447
26427SOL    HW291341   9.867   0.238   7.520
26428SOL     OW91342   9.666   1.217   7.969
26428SOL    HW191343   9.651   1.160   8.049
26428SOL    HW291344   9.719   1.167   7.901
26429SOL     OW91345   9.723   1.379   7.568
26429SOL    HW191346   9.785   1.400   7.492
26429SOL    HW291347   9.745   1.438   7.646
26430SOL     OW91348   9.808   0.368   8.426
26430SOL    HW191349   9.888   0.428   8.432
26430SOL    HW291350   9.835   0.280   8.389
26431SOL     OW91351   9.478   0.833   7.841
26431SOL    HW191352   9.531   0.825   7.926
26431SOL    HW291353   9.395   0.885   7.859
26432SOL     OW91354   9.393   0.992   9.005
26432SOL    HW191355   9.490   1.017   9.014
26432SOL    HW291356   9.351   0.989   9.095
26433SOL     OW91357   9.770   0.730   7.569
26433SOL    HW191358   9.755   0.823   7.535
26433SOL    HW291359   9.824   0.679   7.502
26434SOL     OW91360   9.845   1.609   8.200
26434SOL    HW191361   9.935   1.568   8.184
26434SOL    HW291362   9.778   1.568   8.138
26435SOL     OW91363   9.481   1.312   7.785
26435SOL    HW191364   9.546   1.272   7.850
26435SOL    HW291365   9.490   1.266   7.697
26436SOL     OW91366   9.475   0.482   8.676
26436SOL    HW191367   9.517   0.412   8.618
26436SOL    HW291368   9.441   0.556   8.619
26437SOL     OW91369   9.648   0.307   7.860
26437SOL    HW191370   9.581   0.293   7.933
26437SOL    HW291371   9.642   0.401   7.826
26438SOL     OW91372   9.903   0.038   9.082
26438SOL    HW191373   9.882   9.977   9.006
26438SOL    HW291374   9.975   9.997   9.138
26439SOL     OW91375   9.895   1.175   9.134
26439SOL    HW191376   9.846   1.208   9.214
26439SOL    HW291377   9.968   1.113   9.162
26440SOL     OW91378   9.262   0.652   7.955
26440SOL    HW191379   9.316   0.596   8.018
26440SOL    HW291380   9.288   0.748   7.967
26441SOL     OW91381   9.592   0.164   8.280
26441SOL    HW191382   9.571   0.207   8.368
26441SOL    HW291383   9.685   0.127   8.282
26442SOL     OW91384   9.580   0.272   8.539
26442SOL    HW191385   9.594   0.209   8.615
26442SOL    HW291386   9.668   0.308   8.508
26443SOL     OW91387   9.401   1.569   7.754
26443SOL    HW191388   9.433   1.474   7.757
26443SOL    HW291389   9.455   1.620   7.688
26444SOL     OW91390   9.422   1.598   8.030
26444SOL    HW191391   9.329   1.603   8.065
26444SOL    HW291392   9.420   1.604   7.930
26445SOL     OW91393   9.778   0.991   7.481
26445SOL    HW191394   9.828   1.043   7.412
26445SOL    HW291395   9.756   1.050   7.559
26446SOL     OW91396   9.338   0.821   7.597
26446SOL    HW191397   9.412   0.819   7.663
26446SOL    HW291398   9.265   0.759   7.628
26447SOL     OW91399   0.085   1.830   8.443
26447SOL    HW191400   0.167   1.785   8.409
26447SOL    HW291401   0.018   1.762   8.471
26448SOL     OW91402   9.501   0.659   8.880
26448SOL    HW191403   9.495   0.588   8.810
26448SOL    HW291404   9.463   0.624   8.966
26449SOL     OW91405   9.360   0.289   8.829
26449SOL    HW191406   9.397   0.369   8.782
26449SOL    HW291407   9.276   0.259   8.784
26450SOL     OW91408   9.604   1.076   8.203
26450SOL    HW191409   9.510   1.109   8.210
26450SOL    HW291410   9.646   1.077   8.294
26451SOL     OW91411   9.928   0.801   8.792
26451SOL    HW191412   9.948   0.894   8.824
26451SOL    HW291413   0.010   0.745   8.801
26452SOL     OW91414   9.258   1.833   8.778
26452SOL    HW191415   9.224   1.924   8.753
26452SOL    HW291416   9.226   1.810   8.870
26453SOL     OW91417   9.632   0.522   8.266
26453SOL    HW191418   9.683   0.552   8.185
26453SOL    HW291419   9.693   0.468   8.325
26454SOL     OW91420   9.544   1.774   7.618
26454SOL    HW191421   9.627   1.814   7.578
26454SOL    HW291422   9.541   1.793   7.716
26455SOL     OW91423   9.344   1.155   8.275
26455SOL    HW191424   9.255   1.140   8.232
26455SOL    HW291425   9.348   1.105   8.362
26456SOL     OW91426   9.223   1.213   7.856
26456SOL    HW191427   9.302   1.274   7.865
26456SOL    HW291428   9.223   1.171   7.766
26457SOL     OW91429   9.665   1.052   9.016
26457SOL    HW191430   9.680   1.044   8.918
26457SOL    HW291431   9.739   1.104   9.057
26458SOL     OW91432   9.376   1.400   8.406
26458SOL    HW191433   9.379   1.323   8.343
26458SOL    HW291434   9.282   1.417   8.434
26459SOL     OW91435   9.924   1.476   8.788
26459SOL    HW191436   9.883   1.565   8.767
26459SOL    HW291437   9.953   1.432   8.703
26460SOL     OW91438   9.377   0.274   9.102
26460SOL    HW191439   9.374   0.268   9.002
26460SOL    HW291440   9.289   0.245   9.139
26461SOL     OW91441   9.464   0.259   8.065
26461SOL    HW191442   9.433   0.351   8.090
26461SOL    HW291443   9.519   0.221   8.140
26462SOL     OW91444   9.634   0.598   7.782
26462SOL    HW191445   9.687   0.625   7.703
26462SOL    HW291446   9.561   0.664   7.799
26463SOL     OW91447   9.544   1.783   8.196
26463SOL    HW191448   9.499   1.727   8.127
26463SOL    HW291449   9.639   1.801   8.169
26464SOL     OW91450   9.641   1.361   8.516
26464SOL    HW191451   9.641   1.372   8.615
26464SOL    HW291452   9.552   1.390   8.479
26465SOL     OW91453   9.569   0.819   8.102
26465SOL    HW191454   9.602   0.908   8.135
26465SOL    HW291455   9.646   0.755   8.096
26466SOL     OW91456   9.385   0.505   8.156
26466SOL    HW191457   9.310   0.530   8.217
26466SOL    HW291458   9.472   0.519   8.202
26467SOL     OW91459   9.781   1.150   7.714
26467SOL    HW191460   9.881   1.153   7.701
26467SOL    HW291461   9.740   1.229   7.669
26468SOL     OW91462   0.069   0.667   7.715
26468SOL    HW191463   0.157   0.628   7.688
26468SOL    HW291464   0.040   0.627   7.802
26469SOL     OW91465   9.667   1.094   8.478
26469SOL    HW191466   9.703   1.064   8.566
26469SOL    HW291467   9.659   1.194   8.477
26470SOL     OW91468   9.819   0.718   8.554
26470SOL    HW191469   9.852   0.752   8.642
26470SOL    HW291470   9.719   0.725   8.551
26471SOL     OW91471   9.979   1.061   8.884
26471SOL    HW191472   0.079   1.063   8.888
26471SOL    HW291473   9.942   1.103   8.967
26472SOL     OW91474   9.858   0.111   8.346
26472SOL    HW191475   9.853   0.042   8.418
26472SOL    HW291476   9.948   0.109   8.304
26473SOL     OW91477   9.504   1.800   8.651
26473SOL    HW191478   9.478   1.757   8.564
26473SOL    HW291479   9.423   1.810   8.709
26474SOL     OW91480   9.411   1.001   8.493
26474SOL    HW191481   9.505   1.033   8.485
26474SOL    HW291482   9.393   0.975   8.588
26475SOL     OW91483   9.519   9.971   7.874
26475SOL    HW191484   9.494   0.066   7.860
26475SOL    HW291485   9.474   9.936   7.956
26476SOL     OW91486   9.978   0.773   9.120
26476SOL    HW191487   9.893   0.736   9.082
26476SOL    HW291488   0.050   0.704   9.113
26477SOL     OW91489   9.283   1.090   7.611
26477SOL    HW191490   9.307   0.994   7.606
26477SOL    HW291491   9.357   1.145   7.572
26478SOL     OW91492   9.412   0.884   8.750
26478SOL    HW191493   9.450   0.802   8.792
26478SOL    HW291494   9.401   0.954   8.821
26479SOL     OW91495   9.932   1.450   7.393
26479SOL    HW191496   9.918   1.535   7.444
26479SOL    HW291497   0.015   1.404   7.426
26480SOL     OW91498   9.900   1.637   8.479
26480SOL    HW191499   9.850   1.613   8.396
26480SOL    HW291500   9.835   1.649   8.554
26481SOL     OW91501   9.362   0.804   8.291
26481SOL    HW191502   9.429   0.803   8.217
26481SOL    HW291503   9.367   0.891   8.339
26482SOL     OW91504   9.270   0.964   9.248
26482SOL    HW191505   9.171   0.961   9.235
26482SOL    HW291506   9.296   0.900   9.320
26483SOL     OW91507   9.694   0.526   9.190
26483SOL    HW191508   9.728   0.568   9.106
26483SOL    HW291509   9.728   0.578   9.269
26484SOL     OW91510   9.845   0.885   7.798
26484SOL    HW191511   9.802   0.971   7.768
26484SOL    HW291512   9.829   0.815   7.729
26485SOL     OW91513   9.677   1.489   8.017
26485SOL    HW191514   9.672   1.390   8.007
26485SOL    HW291515   9.585   1.527   8.027
26486SOL     OW91516   9.419   1.677   8.419
26486SOL    HW191517   9.413   1.578   8.405
26486SOL    HW291518   9.462   1.719   8.340
26487SOL     OW91519   9.752   0.617   8.034
26487SOL    HW191520   9.707   0.602   7.946
26487SOL    HW291521   9.852   0.609   8.023
26488SOL     OW91522   9.745   1.088   8.745
26488SOL    HW191523   9.839   1.076   8.777
26488SOL    HW291524   9.718   1.183   8.757
26489SOL     OW91525   9.498   1.230   7.513
26489SOL    HW191526   9.471   1.216   7.418
26489SOL    HW291527   9.576   1.292   7.517
26490SOL     OW91528   9.895   1.664   7.554
26490SOL    HW191529   9.837   1.742   7.529
26490SOL    HW291530   9.867   1.628   7.643
26491SOL     OW91531   9.755   1.694   8.705
26491SOL    HW191532   9.811   1.772   8.734
26491SOL    HW291533   9.661   1.724   8.691
26492SOL     OW91534   9.427   0.540   9.117
26492SOL    HW191535   9.404   0.443   9.113
26492SOL    HW291536   9.517   0.551   9.159
26493SOL     OW91537   9.253   0.947   7.942
26493SOL    HW191538   9.246   1.045   7.924
26493SOL    HW291539   9.174   0.917   7.995
26494SOL     OW91540   9.758   0.688   8.973
26494SOL    HW191541   9.663   0.690   8.942
26494SOL    HW291542   9.816   0.730   8.904
26495SOL     OW91543   0.008   0.560   8.440
26495SOL    HW191544   0.094   0.600   8.471
26495SOL    HW291545   9.931   0.616   8.472
26496SOL     OW91546   9.931   1.327   8.546
26496SOL    HW191547   9.836   1.346   8.520
26496SOL    HW291548   9.955   1.235   8.516
26497SOL     OW91549   9.384   0.697   8.545
26497SOL    HW191550   9.393   0.777   8.605
26497SOL    HW291551   9.386   0.727   8.450
26498SOL     OW91552   9.684   1.349   8.793
26498SOL    HW191553   9.773   1.395   8.800
26498SOL    HW291554   9.622   1.388   8.861
26499SOL     OW91555   9.593   0.280   9.269
26499SOL    HW191556   9.517   0.264   9.206
26499SOL    HW291557   9.645   0.361   9.240
26500SOL     OW91558   9.760   0.068   9.326
26500SOL    HW191559   9.816   0.056   9.243
26500SOL    HW291560   9.696   0.143   9.312
26501SOL     OW91561   9.657   1.270   9.811
26501SOL    HW191562   9.590   1.266   9.885
26501SOL    HW291563   9.748   1.249   9.847
26502SOL     OW91564   9.776   0.411   0.107
26502SOL    HW191565   9.810   0.445   0.195
26502SOL    HW291566   9.791   0.313   0.101
26503SOL     OW91567   9.559   0.777   9.757
26503SOL    HW191568   9.592   0.704   9.818
26503SOL    HW291569   9.481   0.823   9.799
26504SOL     OW91570   9.776   0.694   9.387
26504SOL    HW191571   9.758   0.782   9.343
26504SOL    HW291572   9.863   0.697   9.435
26505SOL     OW91573   9.568   1.281   9.556
26505SOL    HW191574   9.602   1.281   9.650
26505SOL    HW291575   9.502   1.207   9.544
26506SOL     OW91576   9.580   0.319   9.775
26506SOL    HW191577   9.632   0.396   9.812
26506SOL    HW291578   9.557   0.338   9.679
26507SOL     OW91579   9.262   0.604   9.793
26507SOL    HW191580   9.253   0.575   9.889
26507SOL    HW291581   9.287   0.701   9.790
26508SOL     OW91582   9.385   1.491   9.613
26508SOL    HW191583   9.455   1.431   9.574
26508SOL    HW291584   9.409   1.587   9.596
26509SOL     OW91585   9.392   1.507   9.889
26509SOL    HW191586   9.303   1.546   9.916
26509SOL    HW291587   9.393   1.495   9.790
26510SOL     OW91588   9.703   0.929   9.275
26510SOL    HW191589   9.678   0.952   9.181
26510SOL    HW291590   9.723   1.013   9.326
26511SOL     OW91591   9.327   0.805   9.463
26511SOL    HW191592   9.406   0.744   9.470
26511SOL    HW291593   9.245   0.757   9.495
26512SOL     OW91594   9.277   0.362   9.658
26512SOL    HW191595   9.356   0.358   9.596
26512SOL    HW291596   9.284   0.444   9.715
26513SOL     OW91597   9.199   1.105   9.704
26513SOL    HW191598   9.184   1.188   9.759
26513SOL    HW291599   9.268   1.124   9.633
26514SOL     OW91600   0.036   0.324   9.937
26514SOL    HW191601   9.973   0.264   9.987
26514SOL    HW291602   0.044   0.411   9.985
26515SOL     OW91603   9.545   0.647   9.518
26515SOL    HW191604   9.629   0.662   9.467
26515SOL    HW291605   9.551   0.692   9.607
26516SOL     OW91606   9.508   0.377   9.515
26516SOL    HW191607   9.541   0.335   9.430
26516SOL    HW291608   9.520   0.476   9.510
26517SOL     OW91609   9.233   0.566   0.063
26517SOL    HW191610   9.271   0.649   0.104
26517SOL    HW291611   9.252   0.488   0.123
26518SOL     OW91612   9.769   1.157   9.413
26518SOL    HW191613   9.860   1.180   9.447
26518SOL    HW291614   9.700   1.213   9.460
26519SOL     OW91615   0.009   0.696   9.533
26519SOL    HW191616   0.097   0.655   9.510
26519SOL    HW291617   9.984   0.671   9.627
26520SOL     OW91618   9.349   0.008   9.304
26520SOL    HW191619   9.315   9.956   9.382
26520SOL    HW291620   9.400   0.088   9.336
26521SOL     OW91621   9.518   0.058   9.691
26521SOL    HW191622   9.549   0.145   9.730
26521SOL    HW291623   9.418   0.054   9.693
26522SOL     OW91624   9.390   1.077   9.499
26522SOL    HW191625   9.384   0.978   9.508
26522SOL    HW291626   9.366   1.103   9.405
26523SOL     OW91627   0.030   1.661   9.273
26523SOL    HW191628   0.056   1.737   9.333
26523SOL    HW291629   0.059   1.575   9.314
26524SOL     OW91630   9.895   1.194   9.921
26524SOL    HW191631   9.968   1.196   9.853
26524SOL    HW291632   9.935   1.193   0.012
26525SOL     OW91633   9.778   0.933   9.664
26525SOL    HW191634   9.752   0.988   9.585
26525SOL    HW291635   9.698   0.882   9.696
26526SOL     OW91636   9.228   0.086   9.674
26526SOL    HW191637   9.129   0.070   9.681
26526SOL    HW291638   9.245   0.185   9.673
26527SOL     OW91639   9.645   1.570   9.984
26527SOL    HW191640   9.708   1.556   9.908
26527SOL    HW291641   9.551   1.560   9.952
26528SOL     OW91642   9.723   0.542   9.877
26528SOL    HW191643   9.742   0.487   9.959
26528SOL    HW291644   9.809   0.573   9.837
26529SOL     OW91645   9.293   0.876   9.836
26529SOL    HW191646   9.276   0.961   9.786
26529SOL    HW291647   9.229   0.869   9.913
26530SOL     OW91648   9.911   0.511   0.324
26530SOL    HW191649   9.964   0.428   0.342
26530SOL    HW291650   9.916   0.572   0.403
26531SOL     OW91651   9.774   3.315   0.428
26531SOL    HW191652   9.739   3.330   0.520
26531SOL    HW291653   9.862   3.267   0.433
26532SOL     OW91654   9.688   3.066   0.698
26532SOL    HW191655   9.643   3.024   0.777
26532SOL    HW291656   9.762   3.007   0.666
26533SOL     OW91657   9.733   2.153   1.011
26533SOL    HW191658   9.807   2.221   1.007
26533SOL    HW291659   9.772   2.063   1.028
26534SOL     OW91660   9.492   2.637   0.505
26534SOL    HW191661   9.410   2.586   0.529
26534SOL    HW291662   9.533   2.676   0.587
26535SOL     OW91663   9.391   2.828   1.608
26535SOL    HW191664   9.487   2.846   1.630
26535SOL    HW291665   9.342   2.800   1.691
26536SOL     OW91666   9.882   3.515   0.798
26536SOL    HW191667   9.948   3.544   0.728
26536SOL    HW291668   9.813   3.456   0.757
26537SOL     OW91669   9.527   3.090   0.475
26537SOL    HW191670   9.582   3.084   0.559
26537SOL    HW291671   9.574   3.043   0.401
26538SOL     OW91672   9.555   2.374   1.264
26538SOL    HW191673   9.553   2.275   1.249
26538SOL    HW291674   9.486   2.417   1.206
26539SOL     OW91675   9.575   2.127   0.441
26539SOL    HW191676   9.539   2.173   0.522
26539SOL    HW291677   9.533   2.165   0.359
26540SOL     OW91678   9.931   3.053   1.690
26540SOL    HW191679   9.881   3.126   1.738
26540SOL    HW291680   9.964   2.986   1.756
26541SOL     OW91681   9.257   2.542   0.607
26541SOL    HW191682   9.271   2.481   0.685
26541SOL    HW291683   9.231   2.633   0.640
26542SOL     OW91684   9.541   2.035   0.827
26542SOL    HW191685   9.611   2.070   0.889
26542SOL    HW291686   9.552   1.936   0.818
26543SOL     OW91687   9.575   2.097   1.237
26543SOL    HW191688   9.567   1.998   1.251
26543SOL    HW291689   9.634   2.114   1.158
26544SOL     OW91690   9.452   3.353   0.424
26544SOL    HW191691   9.486   3.259   0.434
26544SOL    HW291692   9.502   3.398   0.350
26545SOL     OW91693   9.440   3.445   0.682
26545SOL    HW191694   9.343   3.454   0.706
26545SOL    HW291695   9.449   3.415   0.587
26546SOL     OW91696   9.351   2.626   0.265
26546SOL    HW191697   9.411   2.634   0.344
26546SOL    HW291698   9.261   2.592   0.294
26547SOL     OW91699   0.079   3.648   1.117
26547SOL    HW191700   0.163   3.643   1.063
26547SOL    HW291701   0.027   3.563   1.107
26548SOL     OW91702   9.556   2.489   1.508
26548SOL    HW191703   9.553   2.434   1.425
26548SOL    HW291704   9.495   2.450   1.577
26549SOL     OW91705   9.400   2.128   1.453
26549SOL    HW191706   9.471   2.122   1.383
26549SOL    HW291707   9.310   2.122   1.410
26550SOL     OW91708   9.552   2.949   0.903
26550SOL    HW191709   9.460   2.988   0.894
26550SOL    HW291710   9.570   2.926   0.998
26551SOL     OW91711   9.265   2.197   0.454
26551SOL    HW191712   9.316   2.206   0.368
26551SOL    HW291713   9.326   2.214   0.531
26552SOL     OW91714   9.937   2.646   1.383
26552SOL    HW191715   9.949   2.740   1.416
26552SOL    HW291716   0.020   2.615   1.337
26553SOL     OW91717   9.294   3.670   1.389
26553SOL    HW191718   9.255   3.761   1.400
26553SOL    HW291719   9.301   3.625   1.478
26554SOL     OW91720   9.561   2.370   0.931
26554SOL    HW191721   9.622   2.417   0.867
26554SOL    HW291722   9.610   2.292   0.971
26555SOL     OW91723   9.509   3.550   0.219
26555SOL    HW191724   9.578   3.575   0.152
26555SOL    HW291725   9.521   3.605   0.302
26556SOL     OW91726   9.281   3.047   0.935
26556SOL    HW191727   9.195   3.039   0.885
26556SOL    HW291728   9.280   2.982   1.011
26557SOL     OW91729   9.260   3.001   0.502
26557SOL    HW191730   9.349   3.044   0.515
26557SOL    HW291731   9.254   2.961   0.411
26558SOL     OW91732   9.807   3.284   1.788
26558SOL    HW191733   9.754   3.333   1.718
26558SOL    HW291734   9.888   3.336   1.812
26559SOL     OW91735   9.640   2.906   1.687
26559SOL    HW191736   9.681   2.908   1.595
26559SOL    HW291737   9.628   3.000   1.720
26560SOL     OW91738   9.342   3.258   1.104
26560SOL    HW191739   9.323   3.191   1.033
26560SOL    HW291740   9.268   3.258   1.170
26561SOL     OW91741   9.889   3.351   1.384
26561SOL    HW191742   9.828   3.430   1.378
26561SOL    HW291743   9.880   3.296   1.301
26562SOL     OW91744   9.374   2.101   1.720
26562SOL    HW191745   9.384   2.103   1.621
26562SOL    HW291746   9.279   2.082   1.744
26563SOL     OW91747   9.312   3.545   1.634
26563SOL    HW191748   9.390   3.563   1.695
26563SOL    HW291749   9.227   3.559   1.684
26564SOL     OW91750   9.440   2.225   0.662
26564SOL    HW191751   9.393   2.292   0.721
26564SOL    HW291752   9.479   2.153   0.719
26565SOL     OW91753   9.566   3.685   0.752
26565SOL    HW191754   9.527   3.602   0.712
26565SOL    HW291755   9.623   3.731   0.684
26566SOL     OW91756   9.576   3.167   1.227
26566SOL    HW191757   9.575   3.188   1.325
26566SOL    HW291758   9.496   3.208   1.183
26567SOL     OW91759   9.569   2.702   0.760
26567SOL    HW191760   9.600   2.782   0.810
26567SOL    HW291761   9.639   2.630   0.764
26568SOL     OW91762   9.416   2.209   0.224
26568SOL    HW191763   9.405   2.130   0.164
26568SOL    HW291764   9.417   2.293   0.170
26569SOL     OW91765   9.306   2.396   0.835
26569SOL    HW191766   9.236   2.447   0.885
26569SOL    HW291767   9.391   2.394   0.887
26570SOL     OW91768   9.660   2.972   0.256
26570SOL    HW191769   9.745   3.017   0.229
26570SOL    HW291770   9.588   2.992   0.189
26571SOL     OW91771   9.361   2.000   0.052
26571SOL    HW191772   9.384   1.959   9.964
26571SOL    HW291773   9.341   1.928   0.118
26572SOL     OW91774   9.565   2.897   1.172
26572SOL    HW191775   9.575   2.834   1.248
26572SOL    HW291776   9.582   2.991   1.203
26573SOL     OW91777   9.792   2.502   1.191
26573SOL    HW191778   9.828   2.562   1.263
26573SOL    HW291779   9.704   2.464   1.220
26574SOL     OW91780   9.996   2.903   1.473
26574SOL    HW191781   0.095   2.896   1.481
26574SOL    HW291782   9.960   2.956   1.550
26575SOL     OW91783   9.831   1.912   1.075
26575SOL    HW191784   9.798   1.818   1.064
26575SOL    HW291785   9.919   1.911   1.123
26576SOL     OW91786   9.512   3.679   1.225
26576SOL    HW191787   9.489   3.628   1.141
26576SOL    HW291788   9.434   3.676   1.288
26577SOL     OW91789   9.297   2.857   1.128
26577SOL    HW191790   9.391   2.868   1.159
26577SOL    HW291791   9.293   2.789   1.055
26578SOL     OW91792   9.528   1.858   0.459
26578SOL    HW191793   9.564   1.951   0.455
26578SOL    HW291794   9.436   1.860   0.499
26579SOL     OW91795   0.028   2.575   1.753
26579SOL    HW191796   9.950   2.552   1.696
26579SOL    HW291797   0.109   2.528   1.719
26580SOL     OW91798   9.298   2.900   0.243
26580SOL    HW191799   9.327   2.804   0.242
26580SOL    HW291800   9.362   2.954   0.189
26581SOL     OW91801   9.472   2.709   1.366
26581SOL    HW191802   9.515   2.632   1.413
26581SOL    HW291803   9.435   2.773   1.433
26582SOL     OW91804   9.957   3.419   1.045
26582SOL    HW191805   9.918   3.447   0.957
26582SOL    HW291806   9.904   3.343   1.082
26583SOL     OW91807   9.334   2.698   0.907
26583SOL    HW191808   9.422   2.691   0.861
26583SOL    HW291809   9.265   2.730   0.843
26584SOL     OW91810   9.266   2.756   1.831
26584SOL    HW191811   9.166   2.755   1.823
26584SOL    HW291812   9.293   2.703   1.912
26585SOL     OW91813   9.702   2.356   1.792
26585SOL    HW191814   9.751   2.394   1.714
26585SOL    HW291815   9.721   2.410   1.874
26586SOL     OW91816   9.741   2.753   0.406
26586SOL    HW191817   9.707   2.828   0.350
26586SOL    HW291818   9.663   2.696   0.434
26587SOL     OW91819   9.241   1.925   0.479
26587SOL    HW191820   9.144   1.902   0.495
26587SOL    HW291821   9.251   2.024   0.475
26588SOL     OW91822   9.658   3.439   1.614
26588SOL    HW191823   9.614   3.507   1.673
26588SOL    HW291824   9.681   3.481   1.526
26589SOL     OW91825   9.697   3.339   0.692
26589SOL    HW191826   9.696   3.240   0.706
26589SOL    HW291827   9.604   3.376   0.705
26590SOL     OW91828   9.552   3.644   1.771
26590SOL    HW191829   9.528   3.736   1.740
26590SOL    HW291830   9.626   3.650   1.838
26591SOL     OW91831   9.377   3.109   1.652
26591SOL    HW191832   9.357   3.014   1.628
26591SOL    HW291833   9.305   3.169   1.617
26592SOL     OW91834   9.414   3.515   1.019
26592SOL    HW191835   9.401   3.419   1.042
26592SOL    HW291836   9.457   3.523   0.929
26593SOL     OW91837   9.717   2.468   0.720
26593SOL    HW191838   9.674   2.399   0.660
26593SOL    HW291839   9.810   2.485   0.688
26594SOL     OW91840   9.723   2.957   1.432
26594SOL    HW191841   9.822   2.950   1.421
26594SOL    HW291842   9.697   3.053   1.442
26595SOL     OW91843   9.464   3.056   0.082
26595SOL    HW191844   9.434   3.029   9.991
26595SOL    HW291845   9.466   3.155   0.090
26596SOL     OW91846   9.901   3.555   0.380
26596SOL    HW191847   9.863   3.631   0.327
26596SOL    HW291848   9.837   3.478   0.379
26597SOL     OW91849   9.713   3.563   1.376
26597SOL    HW191850   9.777   3.639   1.392
26597SOL    HW291851   9.641   3.593   1.314
26598SOL     OW91852   9.430   2.372   1.727
26598SOL    HW191853   9.402   2.276   1.723
26598SOL    HW291854   9.523   2.379   1.761
26599SOL     OW91855   9.187   2.793   0.684
26599SOL    HW191856   9.226   2.868   0.630
26599SOL    HW291857   9.087   2.797   0.678
26600SOL     OW91858   9.817   2.507   1.584
26600SOL    HW191859   9.719   2.508   1.562
26600SOL    HW291860   9.868   2.553   1.511
26601SOL     OW91861   9.944   2.340   1.037
26601SOL    HW191862   0.017   2.316   1.100
26601SOL    HW291863   9.885   2.410   1.079
26602SOL     OW91864   9.840   3.200   1.158
26602SOL    HW191865   9.743   3.182   1.174
26602SOL    HW291866   9.889   3.114   1.150
26603SOL     OW91867   9.367   2.552   1.155
26603SOL    HW191868   9.400   2.616   1.225
26603SOL    HW291869   9.370   2.597   1.065
26604SOL     OW91870   9.589   3.197   1.500
26604SOL    HW191871   9.621   3.285   1.536
26604SOL    HW291872   9.511   3.165   1.554
26605SOL     OW91873   9.596   2.114   1.875
26605SOL    HW191874   9.515   2.103   1.817
26605SOL    HW291875   9.648   2.194   1.845
26606SOL     OW91876   9.827   3.327   2.219
26606SOL    HW191877   9.791   3.340   2.312
26606SOL    HW291878   9.890   3.249   2.219
26607SOL     OW91879   9.762   1.926   1.994
26607SOL    HW191880   9.856   1.958   2.008
26607SOL    HW291881   9.710   1.998   1.947
26608SOL     OW91882   9.707   3.015   2.496
26608SOL    HW191883   9.671   2.987   2.585
26608SOL    HW291884   9.723   2.934   2.440
26609SOL     OW91885   9.671   3.219   2.014
26609SOL    HW191886   9.715   3.243   1.927
26609SOL    HW291887   9.713   3.271   2.088
26610SOL     OW91888   9.747   2.194   2.879
26610SOL    HW191889   9.799   2.270   2.920
26610SOL    HW291890   9.810   2.126   2.844
26611SOL     OW91891   9.552   2.614   2.376
26611SOL    HW191892   9.588   2.626   2.469
26611SOL    HW291893   9.454   2.595   2.381
26612SOL     OW91894   9.375   2.823   3.450
26612SOL    HW191895   9.472   2.831   3.471
26612SOL    HW291896   9.323   2.808   3.534
26613SOL     OW91897   9.757   2.520   2.001
26613SOL    HW191898   9.736   2.612   1.968
26613SOL    HW291899   9.855   2.513   2.022
26614SOL     OW91900   9.926   3.408   2.646
26614SOL    HW191901   0.009   3.427   2.593
26614SOL    HW291902   9.856   3.370   2.585
26615SOL     OW91903   9.491   3.145   2.365
26615SOL    HW191904   9.566   3.092   2.405
26615SOL    HW291905   9.502   3.148   2.266
26616SOL     OW91906   9.599   2.371   3.104
26616SOL    HW191907   9.581   2.273   3.100
26616SOL    HW291908   9.523   2.420   3.060
26617SOL     OW91909   9.596   2.158   2.348
26617SOL    HW191910   9.522   2.171   2.414
26617SOL    HW291911   9.562   2.177   2.256
26618SOL     OW91912   9.923   3.016   3.592
26618SOL    HW191913   9.871   3.100   3.611
26618SOL    HW291914   9.889   2.942   3.651
26619SOL     OW91915   9.293   2.552   2.441
26619SOL    HW191916   9.303   2.486   2.515
26619SOL    HW291917   9.265   2.641   2.478
26620SOL     OW91918   9.592   2.060   2.678
26620SOL    HW191919   9.641   2.111   2.750
26620SOL    HW291920   9.653   1.991   2.639
26621SOL     OW91921   9.580   2.084   3.076
26621SOL    HW191922   9.563   1.986   3.073
26621SOL    HW291923   9.642   2.110   3.002
26622SOL     OW91924   9.712   2.770   1.920
26622SOL    HW191925   9.684   2.809   1.832
26622SOL    HW291926   9.732   2.844   1.984
26623SOL     OW91927   9.326   2.633   2.069
26623SOL    HW191928   9.404   2.572   2.081
26623SOL    HW291929   9.246   2.595   2.116
26624SOL     OW91930   0.115   3.647   2.964
26624SOL    HW191931   0.182   3.586   2.921
26624SOL    HW291932   0.023   3.620   2.937
26625SOL     OW91933   9.600   2.523   3.335
26625SOL    HW191934   9.605   2.457   3.261
26625SOL    HW291935   9.549   2.485   3.412
26626SOL     OW91936   9.407   2.136   3.284
26626SOL    HW191937   9.474   2.116   3.212
26626SOL    HW291938   9.315   2.122   3.248
26627SOL     OW91939   9.590   2.936   2.738
26627SOL    HW191940   9.499   2.975   2.727
26627SOL    HW291941   9.609   2.922   2.835
26628SOL     OW91942   9.261   2.148   2.295
26628SOL    HW191943   9.329   2.169   2.224
26628SOL    HW291944   9.304   2.153   2.385
26629SOL     OW91945   0.004   2.619   3.123
26629SOL    HW191946   9.949   2.631   3.205
26629SOL    HW291947   0.086   2.566   3.145
26630SOL     OW91948   9.281   3.697   3.253
26630SOL    HW191949   9.231   3.783   3.257
26630SOL    HW291950   9.270   3.647   3.338
26631SOL     OW91951   9.597   2.395   2.736
26631SOL    HW191952   9.642   2.380   2.648
26631SOL    HW291953   9.635   2.332   2.803
26632SOL     OW91954   9.326   3.038   2.783
26632SOL    HW191955   9.242   3.031   2.730
26632SOL    HW291956   9.323   2.976   2.862
26633SOL     OW91957   9.254   2.999   2.364
26633SOL    HW191958   9.329   3.063   2.382
26633SOL    HW291959   9.265   2.961   2.272
26634SOL     OW91960   9.808   3.270   3.628
26634SOL    HW191961   9.760   3.320   3.555
26634SOL    HW291962   9.885   3.325   3.661
26635SOL     OW91963   9.622   2.893   3.540
26635SOL    HW191964   9.657   2.921   3.451
26635SOL    HW291965   9.577   2.971   3.585
26636SOL     OW91966   9.379   3.252   2.952
26636SOL    HW191967   9.366   3.183   2.881
26636SOL    HW291968   9.303   3.248   3.017
26637SOL     OW91969   0.033   3.286   3.283
26637SOL    HW191970   0.075   3.371   3.251
26637SOL    HW291971   9.989   3.240   3.206
26638SOL     OW91972   9.392   2.144   3.552
26638SOL    HW191973   9.398   2.136   3.452
26638SOL    HW291974   9.298   2.124   3.581
26639SOL     OW91975   9.274   3.543   3.483
26639SOL    HW191976   9.361   3.557   3.532
26639SOL    HW291977   9.198   3.549   3.548
26640SOL     OW91978   9.393   2.173   2.534
26640SOL    HW191979   9.365   2.258   2.580
26640SOL    HW291980   9.460   2.125   2.591
26641SOL     OW91981   9.535   2.462   2.144
26641SOL    HW191982   9.616   2.478   2.087
26641SOL    HW291983   9.547   2.507   2.232
26642SOL     OW91984   9.666   3.787   2.581
26642SOL    HW191985   9.668   3.848   2.502
26642SOL    HW291986   9.754   3.788   2.627
26643SOL     OW91987   9.631   3.178   3.061
26643SOL    HW191988   9.621   3.196   3.159
26643SOL    HW291989   9.552   3.213   3.012
26644SOL     OW91990   9.607   2.672   2.640
26644SOL    HW191991   9.626   2.762   2.681
26644SOL    HW291992   9.649   2.601   2.695
26645SOL     OW91993   9.463   2.199   2.106
26645SOL    HW191994   9.512   2.163   2.027
26645SOL    HW291995   9.476   2.297   2.113
26646SOL     OW91996   9.325   2.399   2.667
26646SOL    HW191997   9.258   2.451   2.721
26646SOL    HW291998   9.415   2.410   2.708
26647SOL     OW91999   9.763   2.973   2.103
26647SOL    HW192000   9.850   3.002   2.142
26647SOL    HW292001   9.716   3.053   2.065
26648SOL     OW92002   0.030   2.529   2.021
26648SOL    HW192003   0.029   2.541   1.922
26648SOL    HW292004   0.118   2.490   2.049
26649SOL     OW92005   9.298   1.927   2.043
26649SOL    HW192006   9.374   1.869   2.072
26649SOL    HW292007   9.324   2.023   2.051
26650SOL     OW92008   9.597   2.908   3.012
26650SOL    HW192009   9.604   2.852   3.094
26650SOL    HW292010   9.616   3.004   3.034
26651SOL     OW92011   9.855   2.423   3.001
26651SOL    HW192012   9.905   2.498   3.044
26651SOL    HW292013   9.765   2.414   3.043
26652SOL     OW92014   9.974   2.897   3.353
26652SOL    HW192015   0.071   2.873   3.345
26652SOL    HW292016   9.958   2.941   3.442
26653SOL     OW92017   9.901   2.003   2.775
26653SOL    HW192018   9.870   1.952   2.695
26653SOL    HW292019   9.961   1.944   2.830
26654SOL     OW92020   9.509   3.704   3.100
26654SOL    HW192021   9.488   3.645   3.022
26654SOL    HW292022   9.430   3.706   3.162
26655SOL     OW92023   9.317   2.854   2.982
26655SOL    HW192024   9.409   2.858   3.020
26655SOL    HW292025   9.314   2.785   2.910
26656SOL     OW92026   9.576   1.884   2.366
26656SOL    HW192027   9.596   1.981   2.358
26656SOL    HW292028   9.478   1.870   2.378
26657SOL     OW92029   9.960   2.472   3.527
26657SOL    HW192030   9.924   2.531   3.455
26657SOL    HW292031   0.058   2.454   3.510
26658SOL     OW92032   9.325   2.912   2.111
26658SOL    HW192033   9.344   2.816   2.092
26658SOL    HW292034   9.370   2.969   2.042
26659SOL     OW92035   9.475   2.724   3.204
26659SOL    HW192036   9.528   2.654   3.251
26659SOL    HW292037   9.424   2.778   3.272
26660SOL     OW92038   0.022   3.434   1.869
26660SOL    HW192039   9.999   3.483   1.953
26660SOL    HW292040   0.117   3.402   1.873
26661SOL     OW92041   9.874   3.548   2.873
26661SOL    HW192042   9.893   3.494   2.790
26661SOL    HW292043   9.821   3.493   2.937
26662SOL     OW92044   9.359   2.687   2.764
26662SOL    HW192045   9.447   2.674   2.718
26662SOL    HW292046   9.292   2.723   2.699
26663SOL     OW92047   9.248   2.776   3.679
26663SOL    HW192048   9.149   2.770   3.667
26663SOL    HW292049   9.275   2.722   3.759
26664SOL     OW92050   9.738   2.362   3.650
26664SOL    HW192051   9.817   2.383   3.593
26664SOL    HW292052   9.738   2.421   3.731
26665SOL     OW92053   9.748   2.805   2.324
26665SOL    HW192054   9.744   2.850   2.235
26665SOL    HW292055   9.677   2.734   2.329
26666SOL     OW92056   9.304   1.869   2.350
26666SOL    HW192057   9.244   1.792   2.329
26666SOL    HW292058   9.258   1.954   2.325
26667SOL     OW92059   9.668   3.433   3.452
26667SOL    HW192060   9.608   3.487   3.511
26667SOL    HW292061   9.696   3.488   3.374
26668SOL     OW92062   9.731   3.293   2.481
26668SOL    HW192063   9.735   3.194   2.493
26668SOL    HW292064   9.635   3.321   2.473
26669SOL     OW92065   9.514   3.600   3.612
26669SOL    HW192066   9.544   3.692   3.589
26669SOL    HW292067   9.521   3.586   3.711
26670SOL     OW92068   9.371   3.113   3.463
26670SOL    HW192069   9.346   3.018   3.442
26670SOL    HW292070   9.299   3.174   3.430
26671SOL     OW92071   9.423   3.523   2.902
26671SOL    HW192072   9.415   3.425   2.919
26671SOL    HW292073   9.460   3.539   2.811
26672SOL     OW92074   9.736   2.341   2.507
26672SOL    HW192075   9.695   2.271   2.447
26672SOL    HW292076   9.827   2.365   2.473
26673SOL     OW92077   9.715   2.955   3.292
26673SOL    HW192078   9.814   2.947   3.294
26673SOL    HW292079   9.689   3.051   3.295
26674SOL     OW92080   9.441   3.082   1.930
26674SOL    HW192081   9.414   3.100   1.835
26674SOL    HW292082   9.517   3.143   1.955
26675SOL     OW92083   9.924   3.562   2.102
26675SOL    HW192084   9.852   3.614   2.056
26675SOL    HW292085   9.883   3.480   2.143
26676SOL     OW92086   9.721   3.598   3.243
26676SOL    HW192087   9.803   3.653   3.229
26676SOL    HW292088   9.646   3.637   3.189
26677SOL     OW92089   9.478   2.405   3.555
26677SOL    HW192090   9.440   2.312   3.550
26677SOL    HW292091   9.569   2.401   3.595
26678SOL     OW92092   9.218   2.790   2.544
26678SOL    HW192093   9.245   2.866   2.485
26678SOL    HW292094   9.118   2.787   2.550
26679SOL     OW92095   9.851   2.639   3.345
26679SOL    HW192096   9.755   2.614   3.346
26679SOL    HW292097   9.860   2.738   3.356
26680SOL     OW92098   9.916   3.138   3.072
26680SOL    HW192099   9.817   3.150   3.060
26680SOL    HW292100   9.938   3.040   3.065
26681SOL     OW92101   9.397   2.543   3.007
26681SOL    HW192102   9.418   2.613   3.076
26681SOL    HW292103   9.389   2.585   2.917
26682SOL     OW92104   9.597   3.200   3.331
26682SOL    HW192105   9.628   3.286   3.371
26682SOL    HW292106   9.514   3.170   3.377
26683SOL     OW92107   9.615   2.120   3.704
26683SOL    HW192108   9.534   2.122   3.645
26683SOL    HW292109   9.673   2.199   3.684
26684SOL     OW92110   9.796   3.322   4.068
26684SOL    HW192111   9.742   3.324   4.153
26684SOL    HW292112   9.878   3.266   4.082
26685SOL     OW92113   9.775   1.928   3.838
26685SOL    HW192114   9.873   1.949   3.843
26685SOL    HW292115   9.728   2.000   3.788
26686SOL     OW92116   9.637   3.029   4.323
26686SOL    HW192117   9.610   3.003   4.416
26686SOL    HW292118   9.681   2.951   4.279
26687SOL     OW92119   9.653   3.229   3.848
26687SOL    HW192120   9.707   3.249   3.767
26687SOL    HW292121   9.695   3.272   3.928
26688SOL     OW92122   9.799   2.137   4.715
26688SOL    HW192123   9.874   2.202   4.724
26688SOL    HW292124   9.834   2.049   4.683
26689SOL     OW92125   9.529   2.631   4.204
26689SOL    HW192126   9.565   2.655   4.294
26689SOL    HW292127   9.431   2.609   4.212
26690SOL     OW92128   9.371   2.814   5.296
26690SOL    HW192129   9.467   2.831   5.318
26690SOL    HW292130   9.320   2.797   5.380
26691SOL     OW92131   9.760   2.548   3.847
26691SOL    HW192132   9.768   2.636   3.801
26691SOL    HW292133   9.842   2.531   3.902
26692SOL     OW92134   9.803   3.510   4.437
26692SOL    HW192135   9.870   3.552   4.377
26692SOL    HW292136   9.761   3.431   4.392
26693SOL     OW92137   9.474   3.119   4.113
26693SOL    HW192138   9.535   3.083   4.183
26693SOL    HW292139   9.444   3.045   4.053
26694SOL     OW92140   9.595   2.395   4.860
26694SOL    HW192141   9.583   2.297   4.878
26694SOL    HW292142   9.506   2.440   4.864
26695SOL     OW92143   9.600   2.134   4.147
26695SOL    HW192144   9.559   2.187   4.221
26695SOL    HW292145   9.569   2.169   4.059
26696SOL     OW92146   9.910   3.025   5.389
26696SOL    HW192147   9.859   3.095   5.438
26696SOL    HW292148   9.949   2.960   5.454
26697SOL     OW92149   9.272   2.571   4.282
26697SOL    HW192150   9.289   2.506   4.356
26697SOL    HW292151   9.241   2.658   4.320
26698SOL     OW92152   9.657   2.114   4.472
26698SOL    HW192153   9.696   2.126   4.563
26698SOL    HW292154   9.682   2.024   4.436
26699SOL     OW92155   9.579   2.119   4.889
26699SOL    HW192156   9.537   2.029   4.879
26699SOL    HW292157   9.662   2.124   4.833
26700SOL     OW92158   9.411   3.375   4.035
26700SOL    HW192159   9.437   3.281   4.056
26700SOL    HW292160   9.473   3.412   3.965
26701SOL     OW92161   9.415   3.425   4.313
26701SOL    HW192162   9.320   3.435   4.343
26701SOL    HW292163   9.420   3.432   4.214
26702SOL     OW92164   9.780   2.798   3.737
26702SOL    HW192165   9.717   2.816   3.662
26702SOL    HW292166   9.757   2.857   3.815
26703SOL     OW92167   9.315   2.654   3.914
26703SOL    HW192168   9.393   2.591   3.921
26703SOL    HW292169   9.236   2.613   3.960
26704SOL     OW92170   0.031   3.610   4.812
26704SOL    HW192171   0.111   3.585   4.757
26704SOL    HW292172   9.955   3.548   4.790
26705SOL     OW92173   9.494   2.441   5.200
26705SOL    HW192174   9.469   2.354   5.159
26705SOL    HW292175   9.450   2.449   5.290
26706SOL     OW92176   9.413   2.187   5.110
26706SOL    HW192177   9.481   2.160   5.042
26706SOL    HW292178   9.322   2.159   5.080
26707SOL     OW92179   9.549   2.959   4.583
26707SOL    HW192180   9.458   2.999   4.579
26707SOL    HW292181   9.574   2.941   4.679
26708SOL     OW92182   9.285   2.186   4.130
26708SOL    HW192183   9.344   2.201   4.051
26708SOL    HW292184   9.337   2.204   4.214
26709SOL     OW92185   9.933   2.623   5.104
26709SOL    HW192186   9.937   2.720   5.127
26709SOL    HW292187   0.016   2.577   5.137
26710SOL     OW92188   9.279   3.669   5.096
26710SOL    HW192189   9.231   3.756   5.097
26710SOL    HW292190   9.271   3.625   5.185
26711SOL     OW92191   9.577   2.475   4.596
26711SOL    HW192192   9.642   2.436   4.530
26711SOL    HW292193   9.600   2.444   4.688
26712SOL     OW92194   9.548   3.614   3.887
26712SOL    HW192195   9.632   3.663   3.864
26712SOL    HW292196   9.528   3.624   3.984
26713SOL     OW92197   9.285   3.053   4.632
26713SOL    HW192198   9.197   3.048   4.585
26713SOL    HW292199   9.284   2.990   4.710
26714SOL     OW92200   9.221   3.019   4.203
26714SOL    HW192201   9.294   3.087   4.210
26714SOL    HW292202   9.226   2.975   4.113
26715SOL     OW92203   9.786   3.264   5.473
26715SOL    HW192204   9.728   3.311   5.406
26715SOL    HW292205   9.867   3.319   5.491
26716SOL     OW92206   9.621   2.892   5.362
26716SOL    HW192207   9.663   2.892   5.272
26716SOL    HW292208   9.611   2.986   5.394
26717SOL     OW92209   9.364   3.258   4.801
26717SOL    HW192210   9.340   3.195   4.728
26717SOL    HW292211   9.291   3.259   4.870
26718SOL     OW92212   9.924   3.344   5.109
26718SOL    HW192213   9.857   3.418   5.097
26718SOL    HW292214   9.925   3.287   5.027
26719SOL     OW92215   9.374   2.150   5.388
26719SOL    HW192216   9.387   2.154   5.289
26719SOL    HW292217   9.279   2.125   5.408
26720SOL     OW92218   9.272   3.536   5.339
26720SOL    HW192219   9.355   3.555   5.392
26720SOL    HW292220   9.192   3.546   5.399
26721SOL     OW92221   9.434   2.226   4.356
26721SOL    HW192222   9.392   2.298   4.411
26721SOL    HW292223   9.510   2.185   4.407
26722SOL     OW92224   9.528   2.483   3.970
26722SOL    HW192225   9.612   2.503   3.919
26722SOL    HW292226   9.534   2.524   4.061
26723SOL     OW92227   9.541   3.589   4.496
26723SOL    HW192228   9.490   3.541   4.425
26723SOL    HW292229   9.639   3.574   4.482
26724SOL     OW92230   9.617   3.191   4.902
26724SOL    HW192231   9.609   3.199   5.001
26724SOL    HW292232   9.533   3.225   4.859
26725SOL     OW92233   9.578   2.712   4.460
26725SOL    HW192234   9.591   2.797   4.511
26725SOL    HW292235   9.602   2.634   4.518
26726SOL     OW92236   9.462   2.218   3.920
26726SOL    HW192237   9.516   2.180   3.845
26726SOL    HW292238   9.479   2.316   3.927
26727SOL     OW92239   9.318   2.421   4.509
26727SOL    HW192240   9.242   2.465   4.557
26727SOL    HW292241   9.404   2.446   4.552
26728SOL     OW92242   9.748   2.981   3.938
26728SOL    HW192243   9.845   3.003   3.934
26728SOL    HW292244   9.694   3.062   3.913
26729SOL     OW92245   9.989   2.518   3.991
26729SOL    HW192246   0.076   2.479   3.961
26729SOL    HW292247   9.971   2.493   4.086
26730SOL     OW92248   9.301   1.942   3.857
26730SOL    HW192249   9.382   1.887   3.877
26730SOL    HW292250   9.318   2.037   3.882
26731SOL     OW92251   9.573   2.922   4.858
26731SOL    HW192252   9.607   2.869   4.936
26731SOL    HW292253   9.592   3.019   4.873
26732SOL     OW92254   9.836   2.526   4.863
26732SOL    HW192255   9.864   2.562   4.952
26732SOL    HW292256   9.745   2.484   4.871
26733SOL     OW92257   9.979   2.891   5.164
26733SOL    HW192258   0.078   2.881   5.174
26733SOL    HW292259   9.942   2.937   5.245
26734SOL     OW92260   9.854   1.894   4.600
26734SOL    HW192261   9.861   1.809   4.652
26734SOL    HW292262   9.827   1.874   4.506
26735SOL     OW92263   9.511   3.668   4.947
26735SOL    HW192264   9.484   3.621   4.864
26735SOL    HW292265   9.434   3.673   5.010
26736SOL     OW92266   9.303   2.866   4.830
26736SOL    HW192267   9.398   2.878   4.860
26736SOL    HW292268   9.299   2.800   4.756
26737SOL     OW92269   9.538   1.877   4.192
26737SOL    HW192270   9.567   1.970   4.173
26737SOL    HW292271   9.439   1.874   4.203
26738SOL     OW92272   9.967   2.583   5.434
26738SOL    HW192273   9.888   2.546   5.384
26738SOL    HW292274   0.037   2.512   5.443
26739SOL     OW92275   9.346   2.931   3.942
26739SOL    HW192276   9.347   2.831   3.936
26739SOL    HW292277   9.386   2.970   3.859
26740SOL     OW92278   9.451   2.677   5.063
26740SOL    HW192279   9.477   2.592   5.107
26740SOL    HW292280   9.420   2.743   5.132
26741SOL     OW92281   0.006   3.426   3.734
26741SOL    HW192282   9.985   3.478   3.817
26741SOL    HW292283   0.074   3.356   3.755
26742SOL     OW92284   9.840   3.450   4.706
26742SOL    HW192285   9.826   3.464   4.608
26742SOL    HW292286   9.777   3.379   4.739
26743SOL     OW92287   9.334   2.713   4.603
26743SOL    HW192288   9.420   2.704   4.554
26743SOL    HW292289   9.263   2.745   4.540
26744SOL     OW92290   9.235   2.775   5.521
26744SOL    HW192291   9.136   2.780   5.518
26744SOL    HW292292   9.264   2.724   5.602
26745SOL     OW92293   9.718   2.332   5.500
26745SOL    HW192294   9.737   2.372   5.410
26745SOL    HW292295   9.748   2.395   5.571
26746SOL     OW92296   9.733   2.820   4.162
26746SOL    HW192297   9.732   2.871   4.076
26746SOL    HW292298   9.662   2.750   4.159
26747SOL     OW92299   9.264   1.919   4.195
26747SOL    HW192300   9.170   1.887   4.179
26747SOL    HW292301   9.270   2.016   4.173
26748SOL     OW92302   9.637   3.423   5.306
26748SOL    HW192303   9.586   3.485   5.365
26748SOL    HW292304   9.672   3.474   5.227
26749SOL     OW92305   9.665   3.305   4.312
26749SOL    HW192306   9.661   3.206   4.323
26749SOL    HW292307   9.573   3.344   4.317
26750SOL     OW92308   9.503   3.602   5.480
26750SOL    HW192309   9.532   3.695   5.457
26750SOL    HW292310   9.509   3.588   5.578
26751SOL     OW92311   9.372   3.100   5.326
26751SOL    HW192312   9.346   3.006   5.306
26751SOL    HW292313   9.298   3.162   5.298
26752SOL     OW92314   9.409   3.527   4.734
26752SOL    HW192315   9.400   3.429   4.746
26752SOL    HW292316   9.455   3.546   4.647
26753SOL     OW92317   9.746   2.379   4.409
26753SOL    HW192318   9.735   2.280   4.402
26753SOL    HW292319   9.816   2.409   4.344
26754SOL     OW92320   9.714   2.943   5.108
26754SOL    HW192321   9.814   2.933   5.111
26754SOL    HW292322   9.690   3.038   5.127
26755SOL     OW92323   9.465   3.065   3.726
26755SOL    HW192324   9.420   3.103   3.645
26755SOL    HW292325   9.520   3.136   3.770
26756SOL     OW92326   9.912   3.552   3.969
26756SOL    HW192327   9.851   3.622   3.931
26756SOL    HW292328   9.858   3.475   4.002
26757SOL     OW92329   9.728   3.551   5.080
26757SOL    HW192330   9.792   3.627   5.088
26757SOL    HW292331   9.649   3.579   5.025
26758SOL     OW92332   9.389   2.417   5.457
26758SOL    HW192333   9.388   2.317   5.444
26758SOL    HW292334   9.461   2.441   5.522
26759SOL     OW92335   9.185   2.806   4.385
26759SOL    HW192336   9.214   2.885   4.330
26759SOL    HW292337   9.085   2.804   4.389
26760SOL     OW92338   9.762   2.478   5.268
26760SOL    HW192339   9.668   2.468   5.235
26760SOL    HW292340   9.816   2.527   5.200
26761SOL     OW92341   0.005   2.355   4.740
26761SOL    HW192342   0.093   2.385   4.776
26761SOL    HW292343   9.932   2.414   4.776
26762SOL     OW92344   9.900   3.175   4.885
26762SOL    HW192345   9.800   3.174   4.884
26762SOL    HW292346   9.935   3.082   4.873
26763SOL     OW92347   9.369   2.552   4.835
26763SOL    HW192348   9.394   2.609   4.914
26763SOL    HW292349   9.365   2.608   4.753
26764SOL     OW92350   9.590   3.185   5.177
26764SOL    HW192351   9.616   3.273   5.217
26764SOL    HW292352   9.509   3.150   5.223
26765SOL     OW92353   9.587   2.102   5.548
26765SOL    HW192354   9.508   2.113   5.489
26765SOL    HW292355   9.651   2.177   5.533
26766SOL     OW92356   9.788   3.338   5.916
26766SOL    HW192357   9.735   3.337   6.001
26766SOL    HW292358   9.882   3.309   5.936
26767SOL     OW92359   9.762   1.904   5.660
26767SOL    HW192360   9.857   1.913   5.631
26767SOL    HW292361   9.707   1.978   5.621
26768SOL     OW92362   9.659   3.036   6.170
26768SOL    HW192363   9.631   3.007   6.261
26768SOL    HW292364   9.720   2.968   6.130
26769SOL     OW92365   9.648   3.223   5.704
26769SOL    HW192366   9.697   3.243   5.620
26769SOL    HW292367   9.692   3.269   5.781
26770SOL     OW92368   9.520   2.632   6.029
26770SOL    HW192369   9.563   2.635   6.119
26770SOL    HW292370   9.421   2.624   6.039
26771SOL     OW92371   9.415   2.855   7.128
26771SOL    HW192372   9.509   2.868   7.158
26771SOL    HW292373   9.361   2.820   7.205
26772SOL     OW92374   9.783   2.521   5.685
26772SOL    HW192375   9.764   2.610   5.645
26772SOL    HW292376   9.879   2.517   5.714
26773SOL     OW92377   9.875   3.448   6.271
26773SOL    HW192378   9.953   3.437   6.210
26773SOL    HW292379   9.799   3.392   6.237
26774SOL     OW92380   9.477   3.117   5.978
26774SOL    HW192381   9.547   3.086   6.043
26774SOL    HW292382   9.460   3.046   5.910
26775SOL     OW92383   9.542   2.364   6.740
26775SOL    HW192384   9.498   2.275   6.752
26775SOL    HW292385   9.473   2.432   6.716
26776SOL     OW92386   9.597   2.173   6.051
26776SOL    HW192387   9.514   2.186   6.105
26776SOL    HW292388   9.578   2.195   5.955
26777SOL     OW92389   9.263   2.590   6.113
26777SOL    HW192390   9.278   2.518   6.180
26777SOL    HW292391   9.235   2.674   6.160
26778SOL     OW92392   9.419   3.379   5.918
26778SOL    HW192393   9.440   3.283   5.933
26778SOL    HW292394   9.480   3.417   5.849
26779SOL     OW92395   9.411   3.412   6.199
26779SOL    HW192396   9.320   3.439   6.228
26779SOL    HW292397   9.416   3.413   6.099
26780SOL     OW92398   9.711   2.764   5.593
26780SOL    HW192399   9.677   2.797   5.505
26780SOL    HW292400   9.725   2.841   5.655
26781SOL     OW92401   9.308   2.650   5.752
26781SOL    HW192402   9.391   2.594   5.754
26781SOL    HW292403   9.233   2.601   5.795
26782SOL     OW92404   9.534   2.492   7.042
26782SOL    HW192405   9.522   2.408   6.989
26782SOL    HW292406   9.496   2.479   7.134
26783SOL     OW92407   9.361   2.060   6.957
26783SOL    HW192408   9.392   1.965   6.951
26783SOL    HW292409   9.270   2.069   6.917
26784SOL     OW92410   9.557   2.967   6.416
26784SOL    HW192411   9.469   3.014   6.415
26784SOL    HW292412   9.568   2.919   6.503
26785SOL     OW92413   9.274   2.136   5.937
26785SOL    HW192414   9.346   2.170   5.876
26785SOL    HW292415   9.300   2.153   6.032
26786SOL     OW92416   9.308   3.703   6.875
26786SOL    HW192417   9.258   3.790   6.880
26786SOL    HW292418   9.289   3.649   6.957
26787SOL     OW92419   9.522   2.358   6.448
26787SOL    HW192420   9.593   2.357   6.377
26787SOL    HW292421   9.565   2.359   6.538
26788SOL     OW92422   9.542   3.634   5.768
26788SOL    HW192423   9.617   3.683   5.725
26788SOL    HW292424   9.550   3.641   5.868
26789SOL     OW92425   9.301   3.073   6.454
26789SOL    HW192426   9.238   3.093   6.379
26789SOL    HW292427   9.266   2.997   6.507
26790SOL     OW92428   9.229   3.018   6.066
26790SOL    HW192429   9.308   3.079   6.070
26790SOL    HW292430   9.224   2.975   5.976
26791SOL     OW92431   9.775   3.370   7.365
26791SOL    HW192432   9.738   3.411   7.283
26791SOL    HW292433   9.864   3.412   7.387
26792SOL     OW92434   9.686   2.931   7.160
26792SOL    HW192435   9.725   2.898   7.075
26792SOL    HW292436   9.685   3.031   7.161
26793SOL     OW92437   9.391   3.226   6.666
26793SOL    HW192438   9.367   3.177   6.583
26793SOL    HW292439   9.311   3.233   6.726
26794SOL     OW92440   9.391   2.162   7.213
26794SOL    HW192441   9.380   2.129   7.119
26794SOL    HW292442   9.307   2.143   7.264
26795SOL     OW92443   9.249   3.560   7.111
26795SOL    HW192444   9.322   3.595   7.170
26795SOL    HW292445   9.172   3.623   7.113
26796SOL     OW92446   9.360   2.175   6.190
26796SOL    HW192447   9.333   2.263   6.229
26796SOL    HW292448   9.372   2.108   6.264
26797SOL     OW92449   9.536   2.489   5.794
26797SOL    HW192450   9.626   2.499   5.752
26797SOL    HW292451   9.536   2.535   5.883
26798SOL     OW92452   9.777   3.701   6.230
26798SOL    HW192453   9.704   3.697   6.162
26798SOL    HW292454   9.807   3.608   6.252
26799SOL     OW92455   9.613   3.125   6.807
26799SOL    HW192456   9.618   3.160   6.901
26799SOL    HW292457   9.539   3.172   6.758
26800SOL     OW92458   9.611   2.634   6.290
26800SOL    HW192459   9.688   2.692   6.315
26800SOL    HW292460   9.643   2.539   6.280
26801SOL     OW92461   9.490   2.218   5.792
26801SOL    HW192462   9.528   2.175   5.711
26801SOL    HW292463   9.504   2.317   5.787
26802SOL     OW92464   9.291   2.404   6.310
26802SOL    HW192465   9.212   2.444   6.356
26802SOL    HW292466   9.369   2.402   6.373
26803SOL     OW92467   9.759   2.976   5.763
26803SOL    HW192468   9.856   3.000   5.767
26803SOL    HW292469   9.705   3.058   5.746
26804SOL     OW92470   0.048   2.506   5.775
26804SOL    HW192471   0.145   2.506   5.748
26804SOL    HW292472   0.030   2.426   5.832
26805SOL     OW92473   9.227   1.936   5.733
26805SOL    HW192474   9.301   1.916   5.668
26805SOL    HW292475   9.255   2.011   5.793
26806SOL     OW92476   9.515   2.891   6.693
26806SOL    HW192477   9.515   2.822   6.766
26806SOL    HW292478   9.552   2.976   6.729
26807SOL     OW92479   9.782   2.507   6.746
26807SOL    HW192480   9.793   2.538   6.841
26807SOL    HW292481   9.698   2.454   6.739
26808SOL     OW92482   9.539   3.682   6.733
26808SOL    HW192483   9.525   3.617   6.658
26808SOL    HW292484   9.456   3.688   6.788
26809SOL     OW92485   9.255   2.859   6.622
26809SOL    HW192486   9.348   2.876   6.652
26809SOL    HW292487   9.254   2.783   6.556
26810SOL     OW92488   9.524   1.898   6.006
26810SOL    HW192489   9.569   1.985   6.029
26810SOL    HW292490   9.432   1.897   6.046
26811SOL     OW92491   9.916   2.555   7.247
26811SOL    HW192492   9.892   2.577   7.153
26811SOL    HW292493   0.012   2.575   7.263
26812SOL     OW92494   9.302   2.926   5.804
26812SOL    HW192495   9.316   2.829   5.786
26812SOL    HW292496   9.342   2.979   5.729
26813SOL     OW92497   9.453   2.712   6.898
26813SOL    HW192498   9.484   2.627   6.942
26813SOL    HW292499   9.433   2.780   6.969
26814SOL     OW92500   9.997   3.425   5.534
26814SOL    HW192501   9.965   3.472   5.617
26814SOL    HW292502   0.063   3.355   5.559
26815SOL     OW92503   9.852   3.469   6.544
26815SOL    HW192504   9.864   3.457   6.445
26815SOL    HW292505   9.844   3.379   6.587
26816SOL     OW92506   9.368   2.688   6.426
26816SOL    HW192507   9.456   2.669   6.382
26816SOL    HW292508   9.309   2.737   6.362
26817SOL     OW92509   9.254   2.769   7.327
26817SOL    HW192510   9.155   2.779   7.316
26817SOL    HW292511   9.273   2.721   7.413
26818SOL     OW92512   9.751   2.295   7.354
26818SOL    HW192513   9.827   2.281   7.290
26818SOL    HW292514   9.749   2.391   7.382
26819SOL     OW92515   9.733   2.808   5.984
26819SOL    HW192516   9.737   2.860   5.899
26819SOL    HW292517   9.655   2.746   5.981
26820SOL     OW92518   9.255   1.887   6.085
26820SOL    HW192519   9.213   1.806   6.043
26820SOL    HW292520   9.235   1.968   6.029
26821SOL     OW92521   9.654   3.486   7.144
26821SOL    HW192522   9.580   3.541   7.184
26821SOL    HW292523   9.689   3.532   7.062
26822SOL     OW92524   9.667   3.311   6.165
26822SOL    HW192525   9.666   3.212   6.173
26822SOL    HW292526   9.577   3.347   6.188
26823SOL     OW92527   9.455   3.664   7.259
26823SOL    HW192528   9.450   3.763   7.243
26823SOL    HW292529   9.475   3.647   7.356
26824SOL     OW92530   9.399   3.124   7.202
26824SOL    HW192531   9.384   3.031   7.167
26824SOL    HW292532   9.329   3.185   7.164
26825SOL     OW92533   9.441   3.480   6.546
26825SOL    HW192534   9.437   3.390   6.588
26825SOL    HW292535   9.462   3.471   6.449
26826SOL     OW92536   9.703   2.375   6.239
26826SOL    HW192537   9.691   2.306   6.168
26826SOL    HW292538   9.793   2.418   6.229
26827SOL     OW92539   9.757   2.871   6.886
26827SOL    HW192540   9.811   2.835   6.809
26827SOL    HW292541   9.717   2.959   6.860
26828SOL     OW92542   9.422   3.082   5.614
26828SOL    HW192543   9.403   3.097   5.517
26828SOL    HW292544   9.497   3.142   5.643
26829SOL     OW92545   9.889   3.541   5.754
26829SOL    HW192546   9.823   3.611   5.728
26829SOL    HW292547   9.848   3.479   5.820
26830SOL     OW92548   9.734   3.627   6.925
26830SOL    HW192549   9.811   3.690   6.914
26830SOL    HW292550   9.669   3.641   6.850
26831SOL     OW92551   9.424   2.424   7.287
26831SOL    HW192552   9.418   2.326   7.268
26831SOL    HW292553   9.458   2.437   7.380
26832SOL     OW92554   9.191   2.816   6.253
26832SOL    HW192555   9.206   2.893   6.190
26832SOL    HW292556   9.093   2.796   6.258
26833SOL     OW92557   9.779   2.614   7.002
26833SOL    HW192558   9.690   2.577   7.029
26833SOL    HW292559   9.768   2.708   6.970
26834SOL     OW92560   0.001   2.379   6.622
26834SOL    HW192561   0.078   2.400   6.682
26834SOL    HW292562   9.918   2.423   6.657
26835SOL     OW92563   9.845   3.214   6.671
26835SOL    HW192564   9.759   3.183   6.710
26835SOL    HW292565   9.908   3.239   6.745
26836SOL     OW92566   9.366   2.563   6.676
26836SOL    HW192567   9.390   2.630   6.747
26836SOL    HW292568   9.377   2.605   6.586
26837SOL     OW92569   9.623   3.212   7.070
26837SOL    HW192570   9.647   3.307   7.091
26837SOL    HW292571   9.542   3.186   7.122
26838SOL     OW92572   9.590   2.083   7.379
26838SOL    HW192573   9.515   2.101   7.315
26838SOL    HW292574   9.658   2.156   7.371
26839SOL     OW92575   9.778   3.353   7.799
26839SOL    HW192576   9.743   3.352   7.893
26839SOL    HW292577   9.864   3.303   7.795
26840SOL     OW92578   9.757   1.898   7.500
26840SOL    HW192579   9.850   1.933   7.513
26840SOL    HW292580   9.703   1.967   7.452
26841SOL     OW92581   9.723   3.051   8.105
26841SOL    HW192582   9.661   3.008   8.170
26841SOL    HW292583   9.786   2.982   8.068
26842SOL     OW92584   9.638   3.267   7.573
26842SOL    HW192585   9.683   3.302   7.491
26842SOL    HW292586   9.690   3.295   7.654
26843SOL     OW92587   9.725   2.085   8.379
26843SOL    HW192588   9.788   2.163   8.377
26843SOL    HW292589   9.769   2.006   8.335
26844SOL     OW92590   9.541   2.603   7.835
26844SOL    HW192591   9.594   2.632   7.914
26844SOL    HW292592   9.449   2.578   7.864
26845SOL     OW92593   9.418   2.873   9.006
26845SOL    HW192594   9.506   2.897   9.047
26845SOL    HW292595   9.355   2.842   9.077
26846SOL     OW92596   9.722   2.576   7.429
26846SOL    HW192597   9.691   2.671   7.436
26846SOL    HW292598   9.797   2.570   7.364
26847SOL     OW92599   9.883   3.504   8.203
26847SOL    HW192600   9.975   3.497   8.163
26847SOL    HW292601   9.821   3.441   8.155
26848SOL     OW92602   9.535   3.043   7.887
26848SOL    HW192603   9.594   3.048   7.968
26848SOL    HW292604   9.569   2.971   7.827
26849SOL     OW92605   9.598   2.356   8.584
26849SOL    HW192606   9.575   2.264   8.615
26849SOL    HW292607   9.518   2.416   8.595
26850SOL     OW92608   9.611   2.110   7.856
26850SOL    HW192609   9.562   2.160   7.927
26850SOL    HW292610   9.584   2.145   7.766
26851SOL     OW92611   9.967   2.990   9.065
26851SOL    HW192612   9.870   3.004   9.086
26851SOL    HW292613   0.004   2.918   9.124
26852SOL     OW92614   9.298   2.547   7.939
26852SOL    HW192615   9.299   2.491   8.023
26852SOL    HW292616   9.267   2.639   7.961
26853SOL     OW92617   9.472   2.046   8.245
26853SOL    HW192618   9.547   2.081   8.301
26853SOL    HW292619   9.486   1.949   8.227
26854SOL     OW92620   9.573   2.073   8.619
26854SOL    HW192621   9.553   1.976   8.635
26854SOL    HW292622   9.629   2.082   8.537
26855SOL     OW92623   9.449   3.278   7.772
26855SOL    HW192624   9.472   3.191   7.816
26855SOL    HW292625   9.504   3.290   7.690
26856SOL     OW92626   9.454   3.426   8.012
26856SOL    HW192627   9.357   3.443   8.032
26856SOL    HW292628   9.462   3.391   7.918
26857SOL     OW92629   9.651   2.845   7.433
26857SOL    HW192630   9.687   2.861   7.341
26857SOL    HW292631   9.585   2.917   7.456
26858SOL     OW92632   9.300   2.645   7.569
26858SOL    HW192633   9.379   2.583   7.571
26858SOL    HW292634   9.225   2.604   7.621
26859SOL     OW92635   0.010   3.629   8.575
26859SOL    HW192636   0.089   3.586   8.532
26859SOL    HW292637   9.936   3.562   8.583
26860SOL     OW92638   9.573   2.536   8.939
26860SOL    HW192639   9.615   2.445   8.950
26860SOL    HW292640   9.506   2.550   9.012
26861SOL     OW92641   9.393   2.147   8.830
26861SOL    HW192642   9.464   2.126   8.764
26861SOL    HW292643   9.303   2.128   8.790
26862SOL     OW92644   9.557   2.914   8.269
26862SOL    HW192645   9.458   2.921   8.266
26862SOL    HW292646   9.588   2.919   8.365
26863SOL     OW92647   9.303   2.182   7.816
26863SOL    HW192648   9.366   2.187   7.738
26863SOL    HW292649   9.352   2.204   7.900
26864SOL     OW92650   9.953   2.686   8.678
26864SOL    HW192651   9.974   2.769   8.729
26864SOL    HW292652   0.038   2.639   8.652
26865SOL     OW92653   9.300   3.673   8.768
26865SOL    HW192654   9.307   3.771   8.787
26865SOL    HW292655   9.271   3.625   8.850
26866SOL     OW92656   9.538   2.383   8.313
26866SOL    HW192657   9.615   2.405   8.254
26866SOL    HW292658   9.569   2.372   8.407
26867SOL     OW92659   9.513   3.645   7.526
26867SOL    HW192660   9.604   3.683   7.511
26867SOL    HW292661   9.496   3.638   7.625
26868SOL     OW92662   9.284   2.931   8.325
26868SOL    HW192663   9.193   2.950   8.288
26868SOL    HW292664   9.281   2.936   8.425
26869SOL     OW92665   9.248   3.024   7.876
26869SOL    HW192666   9.340   3.045   7.909
26869SOL    HW292667   9.252   2.993   7.782
26870SOL     OW92668   9.779   3.249   9.108
26870SOL    HW192669   9.724   3.318   9.060
26870SOL    HW292670   9.869   3.288   9.129
26871SOL     OW92671   9.679   2.985   9.063
26871SOL    HW192672   9.688   2.966   8.965
26871SOL    HW292673   9.689   3.083   9.079
26872SOL     OW92674   9.969   3.353   8.840
26872SOL    HW192675   9.904   3.427   8.824
26872SOL    HW292676   9.960   3.284   8.768
26873SOL     OW92677   9.335   2.230   9.087
26873SOL    HW192678   9.361   2.201   8.995
26873SOL    HW292679   9.246   2.190   9.110
26874SOL     OW92680   9.235   3.529   9.007
26874SOL    HW192681   9.322   3.546   9.054
26874SOL    HW292682   9.160   3.536   9.073
26875SOL     OW92683   9.450   2.230   8.044
26875SOL    HW192684   9.402   2.309   8.084
26875SOL    HW292685   9.461   2.158   8.112
26876SOL     OW92686   9.526   2.475   7.587
26876SOL    HW192687   9.603   2.505   7.532
26876SOL    HW292688   9.537   2.508   7.681
26877SOL     OW92689   9.594   3.630   8.144
26877SOL    HW192690   9.537   3.567   8.090
26877SOL    HW292691   9.684   3.639   8.101
26878SOL     OW92692   9.681   3.232   8.566
26878SOL    HW192693   9.638   3.247   8.655
26878SOL    HW292694   9.707   3.320   8.526
26879SOL     OW92695   9.660   2.703   8.073
26879SOL    HW192696   9.616   2.756   8.145
26879SOL    HW292697   9.673   2.609   8.105
26880SOL     OW92698   9.491   2.199   7.615
26880SOL    HW192699   9.529   2.151   7.536
26880SOL    HW292700   9.502   2.298   7.603
26881SOL     OW92701   9.306   2.426   8.182
26881SOL    HW192702   9.220   2.428   8.233
26881SOL    HW292703   9.382   2.411   8.245
26882SOL     OW92704   9.302   1.922   7.591
26882SOL    HW192705   9.384   1.866   7.604
26882SOL    HW292706   9.328   2.016   7.571
26883SOL     OW92707   9.607   2.970   8.538
26883SOL    HW192708   9.642   2.935   8.625
26883SOL    HW292709   9.628   3.068   8.531
26884SOL     OW92710   9.846   2.464   8.547
26884SOL    HW192711   9.864   2.549   8.596
26884SOL    HW292712   9.754   2.431   8.569
26885SOL     OW92713   0.003   2.926   8.801
26885SOL    HW192714   0.093   2.950   8.763
26885SOL    HW292715   0.002   2.943   8.899
26886SOL     OW92716   9.880   1.876   8.256
26886SOL    HW192717   9.860   1.779   8.242
26886SOL    HW292718   9.953   1.886   8.324
26887SOL     OW92719   9.561   3.664   8.665
26887SOL    HW192720   9.555   3.635   8.570
26887SOL    HW292721   9.471   3.658   8.708
26888SOL     OW92722   9.343   2.915   8.602
26888SOL    HW192723   9.433   2.946   8.571
26888SOL    HW292724   9.353   2.835   8.661
26889SOL     OW92725   9.528   1.851   7.874
26889SOL    HW192726   9.574   1.939   7.877
26889SOL    HW292727   9.432   1.862   7.898
26890SOL     OW92728   9.995   2.528   9.143
26890SOL    HW192729   9.945   2.545   9.058
26890SOL    HW292730   0.083   2.485   9.122
26891SOL     OW92731   9.303   2.921   7.623
26891SOL    HW192732   9.316   2.824   7.606
26891SOL    HW292733   9.367   2.973   7.566
26892SOL     OW92734   9.429   2.715   8.784
26892SOL    HW192735   9.489   2.643   8.820
26892SOL    HW292736   9.413   2.783   8.855
26893SOL     OW92737   0.002   3.503   7.457
26893SOL    HW192738   9.954   3.531   7.540
26893SOL    HW292739   0.100   3.515   7.470
26894SOL     OW92740   9.777   3.464   8.458
26894SOL    HW192741   9.827   3.468   8.372
26894SOL    HW292742   9.689   3.510   8.448
26895SOL     OW92743   9.355   2.666   8.337
26895SOL    HW192744   9.336   2.614   8.253
26895SOL    HW292745   9.326   2.761   8.325
26896SOL     OW92746   9.250   2.794   9.201
26896SOL    HW192747   9.151   2.807   9.195
26896SOL    HW292748   9.272   2.741   9.283
26897SOL     OW92749   9.671   2.316   9.075
26897SOL    HW192750   9.596   2.257   9.104
26897SOL    HW292751   9.690   2.385   9.145
26898SOL     OW92752   9.653   2.830   7.726
26898SOL    HW192753   9.661   2.833   7.626
26898SOL    HW292754   9.603   2.748   7.753
26899SOL     OW92755   9.265   1.922   7.908
26899SOL    HW192756   9.171   1.892   7.894
26899SOL    HW292757   9.276   2.014   7.870
26900SOL     OW92758   9.639   3.449   8.989
26900SOL    HW192759   9.578   3.509   9.040
26900SOL    HW292760   9.693   3.503   8.924
26901SOL     OW92761   9.710   3.329   8.068
26901SOL    HW192762   9.713   3.231   8.088
26901SOL    HW292763   9.614   3.359   8.066
26902SOL     OW92764   9.471   3.617   9.137
26902SOL    HW192765   9.466   3.715   9.117
26902SOL    HW292766   9.493   3.604   9.233
26903SOL     OW92767   9.388   3.142   8.978
26903SOL    HW192768   9.379   3.042   8.974
26903SOL    HW292769   9.301   3.184   8.954
26904SOL     OW92770   9.533   3.579   8.407
26904SOL    HW192771   9.436   3.589   8.426
26904SOL    HW292772   9.551   3.599   8.311
26905SOL     OW92773   9.715   2.434   8.102
26905SOL    HW192774   9.676   2.351   8.063
26905SOL    HW292775   9.810   2.444   8.073
26906SOL     OW92776   9.729   2.980   8.793
26906SOL    HW192777   9.828   2.971   8.791
26906SOL    HW292778   9.705   3.077   8.796
26907SOL     OW92779   9.486   3.062   7.465
26907SOL    HW192780   9.451   3.092   7.376
26907SOL    HW292781   9.539   3.135   7.507
26908SOL     OW92782   9.868   3.585   7.684
26908SOL    HW192783   9.807   3.650   7.639
26908SOL    HW292784   9.813   3.510   7.723
26909SOL     OW92785   9.785   3.558   8.785
26909SOL    HW192786   9.830   3.644   8.810
26909SOL    HW292787   9.704   3.578   8.730
26910SOL     OW92788   9.402   2.479   9.164
26910SOL    HW192789   9.381   2.384   9.140
26910SOL    HW292790   9.441   2.482   9.256
26911SOL     OW92791   9.204   2.784   8.007
26911SOL    HW192792   9.216   2.875   7.967
26911SOL    HW292793   9.111   2.775   8.043
26912SOL     OW92794   9.851   2.591   8.923
26912SOL    HW192795   9.751   2.585   8.928
26912SOL    HW292796   9.878   2.622   8.832
26913SOL     OW92797   9.922   2.283   8.363
26913SOL    HW192798   9.998   2.319   8.309
26913SOL    HW292799   9.895   2.350   8.433
26914SOL     OW92800   9.936   3.172   8.633
26914SOL    HW192801   9.844   3.193   8.603
26914SOL    HW292802   9.957   3.076   8.613
26915SOL     OW92803   9.396   2.541   8.574
26915SOL    HW192804   9.403   2.608   8.647
26915SOL    HW292805   9.390   2.588   8.486
26916SOL     OW92806   9.599   3.230   8.828
26916SOL    HW192807   9.622   3.314   8.877
26916SOL    HW292808   9.519   3.188   8.871
26917SOL     OW92809   9.765   3.388   9.548
26917SOL    HW192810   9.672   3.395   9.583
26917SOL    HW292811   9.820   3.332   9.610
26918SOL     OW92812   9.652   3.232   9.344
26918SOL    HW192813   9.700   3.242   9.257
26918SOL    HW292814   9.685   3.301   9.409
26919SOL     OW92815   9.539   2.628   9.674
26919SOL    HW192816   9.550   2.559   9.745
26919SOL    HW292817   9.460   2.686   9.695
26920SOL     OW92818   9.741   2.533   9.254
26920SOL    HW192819   9.718   2.630   9.257
26920SOL    HW292820   9.833   2.521   9.217
26921SOL     OW92821   9.512   3.077   9.611
26921SOL    HW192822   9.601   3.051   9.574
26921SOL    HW292823   9.439   3.038   9.555
26922SOL     OW92824   9.322   2.465   9.825
26922SOL    HW192825   9.355   2.435   9.914
26922SOL    HW292826   9.318   2.565   9.823
26923SOL     OW92827   9.509   3.357   9.635
26923SOL    HW192828   9.502   3.258   9.627
26923SOL    HW292829   9.419   3.398   9.619
26924SOL     OW92830   9.490   3.470   9.891
26924SOL    HW192831   9.404   3.424   9.915
26924SOL    HW292832   9.515   3.445   9.797
26925SOL     OW92833   9.697   2.802   9.267
26925SOL    HW192834   9.686   2.860   9.186
26925SOL    HW292835   9.709   2.859   9.348
26926SOL     OW92836   9.304   2.672   9.438
26926SOL    HW192837   9.383   2.612   9.424
26926SOL    HW292838   9.236   2.624   9.495
26927SOL     OW92839   9.307   2.233   9.655
26927SOL    HW192840   9.373   2.247   9.581
26927SOL    HW292841   9.318   2.305   9.724
26928SOL     OW92842   9.552   3.651   9.408
26928SOL    HW192843   9.640   3.688   9.377
26928SOL    HW292844   9.548   3.656   9.508
26929SOL     OW92845   9.364   3.023   9.830
26929SOL    HW192846   9.429   3.030   9.754
26929SOL    HW292847   9.309   3.106   9.836
26930SOL     OW92848   9.525   2.506   9.421
26930SOL    HW192849   9.608   2.509   9.366
26930SOL    HW292850   9.542   2.545   9.511
26931SOL     OW92851   9.664   3.652   9.997
26931SOL    HW192852   9.594   3.591   9.960
26931SOL    HW292853   9.744   3.651   9.937
26932SOL     OW92854   9.438   2.444   0.078
26932SOL    HW192855   9.398   2.513   0.138
26932SOL    HW292856   9.537   2.448   0.083
26933SOL     OW92857   9.739   3.006   9.466
26933SOL    HW192858   9.838   3.018   9.466
26933SOL    HW292859   9.697   3.081   9.415
26934SOL     OW92860   0.065   2.492   9.413
26934SOL    HW192861   0.040   2.501   9.316
26934SOL    HW292862   0.000   2.431   9.458
26935SOL     OW92863   9.430   1.758   9.593
26935SOL    HW192864   9.504   1.810   9.552
26935SOL    HW292865   9.363   1.821   9.634
26936SOL     OW92866   9.327   2.951   9.459
26936SOL    HW192867   9.330   2.852   9.444
26936SOL    HW292868   9.353   2.998   9.375
26937SOL     OW92869   9.997   3.401   9.202
26937SOL    HW192870   9.973   3.461   9.279
26937SOL    HW292871   0.063   3.333   9.233
26938SOL     OW92872   9.773   2.758   9.589
26938SOL    HW192873   9.749   2.850   9.558
26938SOL    HW292874   9.691   2.711   9.621
26939SOL     OW92875   9.263   1.952   9.693
26939SOL    HW192876   9.165   1.930   9.695
26939SOL    HW292877   9.273   2.052   9.687
26940SOL     OW92878   9.422   3.108   9.257
26940SOL    HW192879   9.409   3.128   9.160
26940SOL    HW292880   9.499   3.162   9.292
26941SOL     OW92881   9.925   3.559   9.411
26941SOL    HW192882   9.869   3.635   9.376
26941SOL    HW292883   9.868   3.499   9.466
26942SOL     OW92884   9.305   2.741   9.823
26942SOL    HW192885   9.331   2.838   9.822
26942SOL    HW292886   9.212   2.732   9.860
26943SOL     OW92887   0.032   2.369   0.378
26943SOL    HW192888   0.101   2.427   0.334
26943SOL    HW292889   9.998   2.414   0.460
26944SOL     OW92890   9.538   3.904   0.009
26944SOL    HW192891   9.581   3.814   0.015
26944SOL    HW292892   9.555   3.943   9.919
26945SOL     OW92893   9.838   5.217   0.404
26945SOL    HW192894   9.795   5.208   0.494
26945SOL    HW292895   9.936   5.201   0.412
26946SOL     OW92896   9.830   3.766   0.213
26946SOL    HW192897   9.925   3.774   0.185
26946SOL    HW292898   9.774   3.739   0.135
26947SOL     OW92899   9.725   4.903   0.660
26947SOL    HW192900   9.686   4.855   0.739
26947SOL    HW292901   9.814   4.864   0.638
26948SOL     OW92902   9.681   5.114   0.186
26948SOL    HW192903   9.686   5.183   0.115
26948SOL    HW292904   9.724   5.149   0.270
26949SOL     OW92905   9.738   3.983   0.990
26949SOL    HW192906   9.802   4.057   0.973
26949SOL    HW292907   9.784   3.895   0.975
26950SOL     OW92908   9.535   4.533   0.479
26950SOL    HW192909   9.556   4.528   0.577
26950SOL    HW292910   9.439   4.557   0.466
26951SOL     OW92911   9.397   4.680   1.603
26951SOL    HW192912   9.490   4.705   1.630
26951SOL    HW292913   9.344   4.652   1.683
26952SOL     OW92914   9.707   4.313   0.057
26952SOL    HW192915   9.711   4.401   0.010
26952SOL    HW292916   9.732   4.240   9.994
26953SOL     OW92917   9.953   5.176   0.814
26953SOL    HW192918   0.028   5.217   0.761
26953SOL    HW292919   9.868   5.182   0.761
26954SOL     OW92920   9.579   4.936   0.429
26954SOL    HW192921   9.627   4.922   0.516
26954SOL    HW292922   9.634   4.899   0.355
26955SOL     OW92923   9.615   4.232   1.164
26955SOL    HW192924   9.602   4.137   1.190
26955SOL    HW292925   9.529   4.282   1.177
26956SOL     OW92926   9.662   3.901   0.559
26956SOL    HW192927   9.594   3.972   0.579
26956SOL    HW292928   9.733   3.938   0.499
26957SOL     OW92929   9.901   4.888   1.716
26957SOL    HW192930   9.872   4.968   1.767
26957SOL    HW292931   9.953   4.827   1.776
26958SOL     OW92932   9.260   4.340   0.540
26958SOL    HW192933   9.293   4.309   0.629
26958SOL    HW292934   9.267   4.440   0.536
26959SOL     OW92935   9.487   3.908   0.880
26959SOL    HW192936   9.567   3.946   0.927
26959SOL    HW292937   9.510   3.818   0.843
26960SOL     OW92938   9.593   3.948   1.220
26960SOL    HW192939   9.566   3.852   1.227
26960SOL    HW292940   9.652   3.961   1.140
26961SOL     OW92941   9.504   5.210   0.439
26961SOL    HW192942   9.522   5.113   0.424
26961SOL    HW292943   9.499   5.257   0.352
26962SOL     OW92944   9.489   5.335   0.679
26962SOL    HW192945   9.393   5.346   0.707
26962SOL    HW292946   9.493   5.297   0.587
26963SOL     OW92947   9.720   4.551   9.926
26963SOL    HW192948   9.742   4.574   9.831
26963SOL    HW292949   9.698   4.634   9.976
26964SOL     OW92950   9.307   4.476   0.208
26964SOL    HW192951   9.390   4.428   0.236
26964SOL    HW292952   9.230   4.443   0.262
26965SOL     OW92953   0.063   5.470   1.132
26965SOL    HW192954   0.146   5.441   1.085
26965SOL    HW292955   9.992   5.401   1.118
26966SOL     OW92956   9.521   4.276   1.540
26966SOL    HW192957   9.496   4.190   1.495
26966SOL    HW292958   9.480   4.279   1.631
26967SOL     OW92959   9.441   4.025   1.441
26967SOL    HW192960   9.506   3.999   1.369
26967SOL    HW292961   9.349   3.996   1.415
26968SOL     OW92962   9.592   4.788   0.882
26968SOL    HW192963   9.503   4.832   0.875
26968SOL    HW292964   9.615   4.774   0.978
26969SOL     OW92965   9.291   4.016   0.427
26969SOL    HW192966   9.334   4.041   0.340
26969SOL    HW292967   9.351   4.041   0.503
26970SOL     OW92968   9.935   4.504   1.389
26970SOL    HW192969   9.928   4.601   1.413
26970SOL    HW292970   0.027   4.471   1.410
26971SOL     OW92971   9.302   5.538   1.408
26971SOL    HW192972   9.252   5.625   1.411
26971SOL    HW292973   9.292   5.491   1.495
26972SOL     OW92974   9.608   4.308   0.892
26972SOL    HW192975   9.667   4.255   0.831
26972SOL    HW292976   9.622   4.277   0.986
26973SOL     OW92977   9.529   5.397   0.224
26973SOL    HW192978   9.623   5.398   0.191
26973SOL    HW292979   9.521   5.455   0.305
26974SOL     OW92980   9.329   4.886   0.935
26974SOL    HW192981   9.257   4.860   0.871
26974SOL    HW292982   9.322   4.829   1.018
26975SOL     OW92983   9.313   4.867   0.441
26975SOL    HW192984   9.408   4.899   0.445
26975SOL    HW292985   9.291   4.839   0.348
26976SOL     OW92986   9.809   5.136   1.802
26976SOL    HW192987   9.759   5.181   1.728
26976SOL    HW292988   9.884   5.194   1.832
26977SOL     OW92989   9.655   4.741   1.664
26977SOL    HW192990   9.673   4.738   1.566
26977SOL    HW292991   9.712   4.810   1.707
26978SOL     OW92992   9.376   5.099   1.109
26978SOL    HW192993   9.359   5.035   1.035
26978SOL    HW292994   9.299   5.097   1.174
26979SOL     OW92995   9.944   5.189   1.419
26979SOL    HW192996   9.878   5.264   1.405
26979SOL    HW292997   9.936   5.124   1.343
26980SOL     OW92998   9.401   3.964   1.712
26980SOL    HW192999   9.417   3.981   1.615
26980SOL    HW293000   9.314   3.917   1.724
26981SOL     OW93001   9.282   5.403   1.648
26981SOL    HW193002   9.368   5.420   1.697
26981SOL    HW293003   9.205   5.414   1.710
26982SOL     OW93004   9.448   4.054   0.650
26982SOL    HW193005   9.416   4.143   0.683
26982SOL    HW293006   9.459   3.992   0.728
26983SOL     OW93007   9.532   4.325   0.268
26983SOL    HW193008   9.606   4.326   0.200
26983SOL    HW293009   9.561   4.376   0.349
26984SOL     OW93010   9.651   5.567   0.717
26984SOL    HW193011   9.594   5.485   0.704
26984SOL    HW293012   9.648   5.623   0.634
26985SOL     OW93013   9.629   5.053   1.213
26985SOL    HW193014   9.619   5.059   1.313
26985SOL    HW293015   9.544   5.082   1.169
26986SOL     OW93016   9.560   4.543   0.755
26986SOL    HW193017   9.587   4.627   0.802
26986SOL    HW293018   9.591   4.464   0.808
26987SOL     OW93019   9.422   4.082   0.192
26987SOL    HW193020   9.480   4.028   0.131
26987SOL    HW293021   9.473   4.163   0.223
26988SOL     OW93022   9.353   4.273   0.789
26988SOL    HW193023   9.279   4.299   0.851
26988SOL    HW293024   9.441   4.290   0.833
26989SOL     OW93025   9.752   4.855   0.210
26989SOL    HW193026   9.820   4.831   0.141
26989SOL    HW293027   9.726   4.951   0.199
26990SOL     OW93028   9.317   3.757   0.152
26990SOL    HW193029   9.367   3.673   0.170
26990SOL    HW293030   9.381   3.831   0.133
26991SOL     OW93031   9.604   4.783   1.159
26991SOL    HW193032   9.643   4.742   1.241
26991SOL    HW293033   9.609   4.882   1.166
26992SOL     OW93034   9.855   4.372   1.154
26992SOL    HW193035   9.877   4.426   1.236
26992SOL    HW293036   9.764   4.331   1.165
26993SOL     OW93037   9.977   4.772   1.481
26993SOL    HW193038   0.077   4.769   1.487
26993SOL    HW293039   9.940   4.810   1.565
26994SOL     OW93040   9.872   3.751   0.958
26994SOL    HW193041   9.858   3.674   0.896
26994SOL    HW293042   9.945   3.729   1.023
26995SOL     OW93043   9.529   5.505   1.254
26995SOL    HW193044   9.500   5.457   1.171
26995SOL    HW293045   9.451   5.515   1.315
26996SOL     OW93046   9.335   4.721   1.154
26996SOL    HW193047   9.431   4.737   1.174
26996SOL    HW293048   9.326   4.648   1.087
26997SOL     OW93049   9.519   3.700   0.439
26997SOL    HW193050   9.579   3.771   0.477
26997SOL    HW293051   9.425   3.718   0.468
26998SOL     OW93052   0.018   4.440   1.695
26998SOL    HW193053   9.934   4.397   1.663
26998SOL    HW293054   0.090   4.371   1.705
26999SOL     OW93055   9.289   4.758   0.189
26999SOL    HW193056   9.305   4.659   0.186
26999SOL    HW293057   9.348   4.803   0.121
27000SOL     OW93058   9.479   4.510   1.400
27000SOL    HW193059   9.499   4.426   1.451
27000SOL    HW293060   9.453   4.583   1.463
27001SOL     OW93061   0.010   5.206   0.114
27001SOL    HW193062   9.930   5.267   0.112
27001SOL    HW293063   0.040   5.195   0.208
27002SOL     OW93064   9.884   5.283   1.059
27002SOL    HW193065   9.906   5.243   0.970
27002SOL    HW293066   9.830   5.218   1.112
27003SOL     OW93067   9.348   4.540   0.950
27003SOL    HW193068   9.405   4.548   0.868
27003SOL    HW293069   9.264   4.492   0.928
27004SOL     OW93070   9.258   4.606   1.817
27004SOL    HW193071   9.159   4.611   1.807
27004SOL    HW293072   9.281   4.560   1.903
27005SOL     OW93073   9.749   4.175   1.792
27005SOL    HW193074   9.769   4.222   1.706
27005SOL    HW293075   9.768   4.237   1.868
27006SOL     OW93076   9.759   4.611   0.338
27006SOL    HW193077   9.745   4.701   0.298
27006SOL    HW293078   9.677   4.582   0.386
27007SOL     OW93079   9.252   3.754   0.487
27007SOL    HW193080   9.155   3.746   0.507
27007SOL    HW293081   9.274   3.848   0.460
27008SOL     OW93082   9.669   5.282   1.616
27008SOL    HW193083   9.612   5.345   1.670
27008SOL    HW293084   9.702   5.330   1.535
27009SOL     OW93085   9.731   5.181   0.660
27009SOL    HW193086   9.713   5.082   0.661
27009SOL    HW293087   9.646   5.230   0.675
27010SOL     OW93088   9.523   5.462   1.776
27010SOL    HW193089   9.550   5.558   1.768
27010SOL    HW293090   9.527   5.434   1.872
27011SOL     OW93091   9.381   4.965   1.626
27011SOL    HW193092   9.358   4.871   1.601
27011SOL    HW293093   9.307   5.025   1.598
27012SOL     OW93094   9.414   5.363   1.039
27012SOL    HW193095   9.404   5.266   1.062
27012SOL    HW293096   9.424   5.373   0.940
27013SOL     OW93097   9.768   4.167   0.722
27013SOL    HW193098   9.769   4.069   0.704
27013SOL    HW293099   9.830   4.213   0.657
27014SOL     OW93100   9.720   4.805   1.408
27014SOL    HW193101   9.819   4.801   1.417
27014SOL    HW293102   9.687   4.896   1.434
27015SOL     OW93103   9.477   4.966   0.040
27015SOL    HW193104   9.429   5.031   9.981
27015SOL    HW293105   9.521   5.015   0.115
27016SOL     OW93106   9.807   5.385   0.191
27016SOL    HW193107   9.821   5.483   0.199
27016SOL    HW293108   9.818   5.342   0.281
27017SOL     OW93109   9.756   5.401   1.384
27017SOL    HW193110   9.820   5.478   1.387
27017SOL    HW293111   9.676   5.427   1.330
27018SOL     OW93112   9.396   4.239   1.787
27018SOL    HW193113   9.399   4.140   1.776
27018SOL    HW293114   9.442   4.264   1.873
27019SOL     OW93115   9.258   4.611   0.520
27019SOL    HW193116   9.282   4.706   0.500
27019SOL    HW293117   9.161   4.606   0.542
27020SOL     OW93118   9.791   4.337   1.565
27020SOL    HW193119   9.694   4.321   1.548
27020SOL    HW293120   9.828   4.397   1.495
27021SOL     OW93121   9.967   4.167   1.017
27021SOL    HW193122   0.011   4.102   1.079
27021SOL    HW293123   9.927   4.242   1.069
27022SOL     OW93124   9.906   5.015   1.199
27022SOL    HW193125   9.806   5.016   1.201
27022SOL    HW293126   9.938   4.923   1.175
27023SOL     OW93127   9.389   4.386   1.178
27023SOL    HW193128   9.418   4.441   1.257
27023SOL    HW293129   9.386   4.445   1.097
27024SOL     OW93130   9.605   5.045   1.489
27024SOL    HW193131   9.637   5.130   1.532
27024SOL    HW293132   9.525   5.011   1.537
27025SOL     OW93133   9.612   3.960   1.886
27025SOL    HW193134   9.532   3.956   1.826
27025SOL    HW293135   9.674   4.032   1.854
27026SOL     OW93136   9.802   5.157   2.232
27026SOL    HW193137   9.752   5.157   2.318
27026SOL    HW293138   9.882   5.098   2.240
27027SOL     OW93139   9.774   3.739   1.937
27027SOL    HW193140   9.869   3.769   1.931
27027SOL    HW293141   9.714   3.819   1.929
27028SOL     OW93142   9.670   4.852   2.472
27028SOL    HW193143   9.663   4.808   2.561
27028SOL    HW293144   9.707   4.788   2.405
27029SOL     OW93145   9.647   5.083   2.012
27029SOL    HW193146   9.701   5.108   1.932
27029SOL    HW293147   9.691   5.117   2.094
27030SOL     OW93148   9.763   4.027   2.874
27030SOL    HW193149   9.829   4.103   2.876
27030SOL    HW293150   9.806   3.947   2.832
27031SOL     OW93151   9.554   4.475   2.318
27031SOL    HW193152   9.613   4.482   2.400
27031SOL    HW293153   9.459   4.470   2.347
27032SOL     OW93154   9.381   4.664   3.438
27032SOL    HW193155   9.475   4.687   3.465
27032SOL    HW293156   9.330   4.633   3.519
27033SOL     OW93157   9.786   4.360   1.986
27033SOL    HW193158   9.767   4.451   1.949
27033SOL    HW293159   9.869   4.364   2.042
27034SOL     OW93160   9.820   5.331   2.613
27034SOL    HW193161   9.883   5.377   2.550
27034SOL    HW293162   9.777   5.254   2.565
27035SOL     OW93163   9.490   4.949   2.275
27035SOL    HW193164   9.550   4.910   2.345
27035SOL    HW293165   9.455   4.876   2.217
27036SOL     OW93166   9.606   4.254   3.050
27036SOL    HW193167   9.604   4.157   3.075
27036SOL    HW293168   9.532   4.302   3.097
27037SOL     OW93169   9.619   4.007   2.400
27037SOL    HW193170   9.531   4.023   2.446
27037SOL    HW293171   9.605   4.009   2.301
27038SOL     OW93172   9.919   4.883   3.534
27038SOL    HW193173   9.861   4.945   3.587
27038SOL    HW293174   9.951   4.809   3.593
27039SOL     OW93175   9.306   4.453   2.426
27039SOL    HW193176   9.318   4.392   2.505
27039SOL    HW293177   9.263   4.538   2.456
27040SOL     OW93178   9.515   3.941   2.746
27040SOL    HW193179   9.584   3.985   2.802
27040SOL    HW293180   9.557   3.869   2.690
27041SOL     OW93181   9.597   3.969   3.087
27041SOL    HW193182   9.568   3.874   3.086
27041SOL    HW293183   9.663   3.984   3.013
27042SOL     OW93184   9.427   5.205   2.197
27042SOL    HW193185   9.451   5.111   2.218
27042SOL    HW293186   9.482   5.238   2.120
27043SOL     OW93187   9.430   5.257   2.474
27043SOL    HW193188   9.335   5.272   2.502
27043SOL    HW293189   9.437   5.261   2.375
27044SOL     OW93190   9.721   4.605   1.898
27044SOL    HW193191   9.688   4.632   1.808
27044SOL    HW293192   9.731   4.686   1.956
27045SOL     OW93193   9.316   4.494   2.058
27045SOL    HW193194   9.395   4.433   2.063
27045SOL    HW293195   9.242   4.457   2.114
27046SOL     OW93196   0.039   5.466   2.959
27046SOL    HW193197   0.123   5.457   2.907
27046SOL    HW293198   9.981   5.386   2.944
27047SOL     OW93199   9.480   4.288   3.347
27047SOL    HW193200   9.458   4.194   3.320
27047SOL    HW293201   9.449   4.304   3.441
27048SOL     OW93202   9.411   4.031   3.285
27048SOL    HW193203   9.478   4.004   3.215
27048SOL    HW293204   9.320   4.002   3.257
27049SOL     OW93205   9.274   4.031   2.285
27049SOL    HW193206   9.352   4.027   2.222
27049SOL    HW293207   9.307   4.031   2.379
27050SOL     OW93208   9.908   4.518   3.218
27050SOL    HW193209   9.906   4.614   3.248
27050SOL    HW293210   9.995   4.477   3.246
27051SOL     OW93211   9.295   5.531   3.246
27051SOL    HW193212   9.244   5.617   3.242
27051SOL    HW293213   9.287   5.492   3.337
27052SOL     OW93214   9.585   4.286   2.768
27052SOL    HW193215   9.643   4.252   2.694
27052SOL    HW293216   9.612   4.242   2.854
27053SOL     OW93217   9.559   5.447   2.052
27053SOL    HW193218   9.646   5.492   2.031
27053SOL    HW293219   9.541   5.454   2.151
27054SOL     OW93220   9.243   4.883   2.854
27054SOL    HW193221   9.166   4.874   2.791
27054SOL    HW293222   9.242   4.808   2.920
27055SOL     OW93223   9.213   4.892   2.330
27055SOL    HW193224   9.288   4.955   2.350
27055SOL    HW293225   9.232   4.844   2.244
27056SOL     OW93226   9.788   5.117   3.632
27056SOL    HW193227   9.734   5.162   3.560
27056SOL    HW293228   9.864   5.175   3.658
27057SOL     OW93229   9.629   4.750   3.521
27057SOL    HW193230   9.665   4.751   3.428
27057SOL    HW293231   9.605   4.842   3.549
27058SOL     OW93232   9.411   5.066   2.959
27058SOL    HW193233   9.355   5.005   2.903
27058SOL    HW293234   9.363   5.088   3.044
27059SOL     OW93235   9.921   5.175   3.231
27059SOL    HW193236   9.856   5.251   3.229
27059SOL    HW293237   9.901   5.112   3.156
27060SOL     OW93238   9.380   3.996   3.559
27060SOL    HW193239   9.390   4.001   3.459
27060SOL    HW293240   9.287   3.968   3.582
27061SOL     OW93241   9.283   5.412   3.495
27061SOL    HW193242   9.369   5.431   3.542
27061SOL    HW293243   9.208   5.417   3.560
27062SOL     OW93244   9.388   4.058   2.538
27062SOL    HW193245   9.357   4.149   2.565
27062SOL    HW293246   9.429   4.012   2.616
27063SOL     OW93247   9.538   4.322   2.090
27063SOL    HW193248   9.626   4.330   2.043
27063SOL    HW293249   9.543   4.369   2.178
27064SOL     OW93250   9.561   5.421   2.657
27064SOL    HW193251   9.508   5.376   2.585
27064SOL    HW293252   9.657   5.398   2.647
27065SOL     OW93253   9.696   4.502   2.549
27065SOL    HW193254   9.702   4.549   2.637
27065SOL    HW293255   9.711   4.404   2.563
27066SOL     OW93256   9.518   4.047   2.137
27066SOL    HW193257   9.553   4.002   2.055
27066SOL    HW293258   9.521   4.147   2.124
27067SOL     OW93259   9.335   4.302   2.650
27067SOL    HW193260   9.261   4.333   2.711
27067SOL    HW293261   9.421   4.302   2.700
27068SOL     OW93262   9.759   4.831   2.049
27068SOL    HW193263   9.855   4.858   2.054
27068SOL    HW293264   9.702   4.912   2.037
27069SOL     OW93265   0.010   4.376   2.145
27069SOL    HW193266   0.096   4.332   2.120
27069SOL    HW293267   9.985   4.350   2.239
27070SOL     OW93268   9.779   4.460   2.977
27070SOL    HW193269   9.827   4.491   3.059
27070SOL    HW293270   9.710   4.393   3.003
27071SOL     OW93271   9.979   4.783   3.286
27071SOL    HW193272   0.078   4.777   3.300
27071SOL    HW293273   9.936   4.821   3.368
27072SOL     OW93274   9.883   3.802   2.764
27072SOL    HW193275   9.868   3.713   2.806
27072SOL    HW293276   9.981   3.815   2.747
27073SOL     OW93277   9.528   5.516   3.099
27073SOL    HW193278   9.505   5.457   3.022
27073SOL    HW293279   9.448   5.524   3.159
27074SOL     OW93280   9.228   4.670   3.030
27074SOL    HW193281   9.289   4.598   3.063
27074SOL    HW293282   9.155   4.630   2.975
27075SOL     OW93283   0.003   4.432   3.505
27075SOL    HW193284   9.915   4.391   3.479
27075SOL    HW293285   0.071   4.360   3.517
27076SOL     OW93286   9.329   4.773   2.102
27076SOL    HW193287   9.341   4.675   2.086
27076SOL    HW293288   9.367   4.824   2.024
27077SOL     OW93289   9.340   4.493   3.229
27077SOL    HW193290   9.392   4.415   3.264
27077SOL    HW293291   9.358   4.574   3.286
27078SOL     OW93292   0.009   5.291   1.899
27078SOL    HW193293   9.992   5.334   1.988
27078SOL    HW293294   0.076   5.217   1.910
27079SOL     OW93295   9.913   5.242   2.871
27079SOL    HW193296   9.866   5.263   2.785
27079SOL    HW293297   9.869   5.164   2.915
27080SOL     OW93298   9.251   4.589   3.662
27080SOL    HW193299   9.153   4.608   3.660
27080SOL    HW293300   9.275   4.548   3.750
27081SOL     OW93301   9.732   4.188   3.615
27081SOL    HW193302   9.743   4.238   3.529
27081SOL    HW293303   9.752   4.249   3.692
27082SOL     OW93304   9.741   4.676   2.274
27082SOL    HW193305   9.743   4.725   2.186
27082SOL    HW293306   9.673   4.603   2.270
27083SOL     OW93307   9.647   5.276   3.456
27083SOL    HW193308   9.599   5.344   3.510
27083SOL    HW293309   9.683   5.319   3.373
27084SOL     OW93310   9.680   5.133   2.480
27084SOL    HW193311   9.677   5.033   2.485
27084SOL    HW293312   9.587   5.170   2.484
27085SOL     OW93313   9.524   5.470   3.618
27085SOL    HW193314   9.557   5.563   3.604
27085SOL    HW293315   9.527   5.447   3.715
27086SOL     OW93316   9.359   4.948   3.499
27086SOL    HW193317   9.335   4.860   3.459
27086SOL    HW293318   9.296   5.018   3.467
27087SOL     OW93319   9.448   5.343   2.899
27087SOL    HW193320   9.448   5.243   2.907
27087SOL    HW293321   9.486   5.370   2.810
27088SOL     OW93322   9.740   4.223   2.540
27088SOL    HW193323   9.702   4.143   2.492
27088SOL    HW293324   9.822   4.254   2.492
27089SOL     OW93325   9.701   4.799   3.263
27089SOL    HW193326   9.796   4.814   3.238
27089SOL    HW293327   9.656   4.887   3.279
27090SOL     OW93328   9.436   4.929   1.906
27090SOL    HW193329   9.420   4.946   1.809
27090SOL    HW293330   9.505   4.994   1.940
27091SOL     OW93331   9.919   5.392   2.148
27091SOL    HW193332   9.859   5.461   2.106
27091SOL    HW293333   9.865   5.312   2.174
27092SOL     OW93334   9.742   5.392   3.226
27092SOL    HW193335   9.807   5.467   3.234
27092SOL    HW293336   9.662   5.423   3.174
27093SOL     OW93337   9.384   4.268   3.609
27093SOL    HW193338   9.391   4.169   3.605
27093SOL    HW293339   9.441   4.303   3.683
27094SOL     OW93340   9.177   4.676   2.498
27094SOL    HW193341   9.193   4.758   2.445
27094SOL    HW293342   9.079   4.667   2.518
27095SOL     OW93343   9.757   4.344   3.384
27095SOL    HW193344   9.660   4.330   3.363
27095SOL    HW293345   9.796   4.408   3.318
27096SOL     OW93346   9.947   4.254   2.884
27096SOL    HW193347   0.031   4.275   2.936
27096SOL    HW293348   9.881   4.327   2.897
27097SOL     OW93349   9.857   5.007   3.009
27097SOL    HW193350   9.767   4.969   2.989
27097SOL    HW293351   9.926   4.936   3.001
27098SOL     OW93352   9.585   5.024   3.363
27098SOL    HW193353   9.610   5.118   3.385
27098SOL    HW293354   9.498   5.001   3.407
27099SOL     OW93355   9.612   3.958   3.697
27099SOL    HW193356   9.526   3.959   3.646
27099SOL    HW293357   9.670   4.034   3.668
27100SOL     OW93358   9.805   5.168   4.072
27100SOL    HW193359   9.752   5.168   4.157
27100SOL    HW293360   9.891   5.118   4.087
27101SOL     OW93361   9.769   3.764   3.825
27101SOL    HW193362   9.863   3.795   3.839
27101SOL    HW293363   9.718   3.834   3.777
27102SOL     OW93364   9.638   4.872   4.318
27102SOL    HW193365   9.613   4.843   4.411
27102SOL    HW293366   9.674   4.794   4.268
27103SOL     OW93367   9.652   5.066   3.860
27103SOL    HW193368   9.699   5.089   3.775
27103SOL    HW293369   9.697   5.112   3.937
27104SOL     OW93370   9.775   4.027   4.736
27104SOL    HW193371   9.852   4.091   4.736
27104SOL    HW293372   9.808   3.937   4.705
27105SOL     OW93373   9.521   4.458   4.191
27105SOL    HW193374   9.560   4.482   4.281
27105SOL    HW293375   9.424   4.439   4.201
27106SOL     OW93376   9.379   4.688   5.294
27106SOL    HW193377   9.476   4.699   5.314
27106SOL    HW293378   9.330   4.666   5.379
27107SOL     OW93379   9.771   4.363   3.822
27107SOL    HW193380   9.757   4.456   3.788
27107SOL    HW293381   9.854   4.360   3.878
27108SOL     OW93382   9.847   5.291   4.465
27108SOL    HW193383   9.937   5.293   4.423
27108SOL    HW293384   9.786   5.233   4.410
27109SOL     OW93385   9.475   4.975   4.117
27109SOL    HW193386   9.539   4.938   4.185
27109SOL    HW293387   9.450   4.903   4.052
27110SOL     OW93388   9.568   4.222   4.949
27110SOL    HW193389   9.564   4.123   4.934
27110SOL    HW293390   9.502   4.268   4.890
27111SOL     OW93391   9.608   3.932   4.157
27111SOL    HW193392   9.565   3.981   4.233
27111SOL    HW293393   9.581   3.974   4.071
27112SOL     OW93394   9.896   4.890   5.404
27112SOL    HW193395   9.866   4.972   5.453
27112SOL    HW293396   9.948   4.831   5.467
27113SOL     OW93397   9.270   4.408   4.288
27113SOL    HW193398   9.295   4.345   4.361
27113SOL    HW293399   9.238   4.494   4.327
27114SOL     OW93400   9.487   3.860   4.533
27114SOL    HW193401   9.551   3.890   4.604
27114SOL    HW293402   9.500   3.763   4.516
27115SOL     OW93403   9.583   3.942   4.921
27115SOL    HW193404   9.570   3.843   4.926
27115SOL    HW293405   9.660   3.963   4.860
27116SOL     OW93406   9.405   5.231   4.039
27116SOL    HW193407   9.432   5.138   4.062
27116SOL    HW293408   9.467   5.268   3.970
27117SOL     OW93409   9.430   5.283   4.325
27117SOL    HW193410   9.336   5.290   4.356
27117SOL    HW293411   9.434   5.304   4.227
27118SOL     OW93412   9.721   4.615   3.744
27118SOL    HW193413   9.687   4.653   3.658
27118SOL    HW293414   9.728   4.689   3.812
27119SOL     OW93415   9.307   4.487   3.909
27119SOL    HW193416   9.386   4.426   3.918
27119SOL    HW293417   9.231   4.450   3.962
27120SOL     OW93418   0.045   5.475   4.834
27120SOL    HW193419   0.127   5.445   4.787
27120SOL    HW293420   9.971   5.409   4.817
27121SOL     OW93421   9.543   4.347   5.189
27121SOL    HW193422   9.545   4.287   5.109
27121SOL    HW293423   9.483   4.308   5.259
27122SOL     OW93424   9.405   3.974   5.134
27122SOL    HW193425   9.475   3.966   5.062
27122SOL    HW293426   9.315   3.959   5.094
27123SOL     OW93427   9.556   4.789   4.571
27123SOL    HW193428   9.465   4.832   4.565
27123SOL    HW293429   9.579   4.774   4.667
27124SOL     OW93430   9.299   4.034   4.124
27124SOL    HW193431   9.361   4.043   4.047
27124SOL    HW293432   9.348   4.049   4.210
27125SOL     OW93433   9.944   4.515   5.077
27125SOL    HW193434   9.929   4.607   5.111
27125SOL    HW293435   0.041   4.498   5.066
27126SOL     OW93436   9.288   5.532   5.083
27126SOL    HW193437   9.239   5.619   5.083
27126SOL    HW293438   9.279   5.488   5.172
27127SOL     OW93439   9.585   4.203   4.622
27127SOL    HW193440   9.640   4.240   4.546
27127SOL    HW293441   9.642   4.142   4.677
27128SOL     OW93442   9.548   5.459   3.895
27128SOL    HW193443   9.636   5.502   3.873
27128SOL    HW293444   9.528   5.472   3.992
27129SOL     OW93445   9.295   4.899   4.621
27129SOL    HW193446   9.206   4.897   4.575
27129SOL    HW293447   9.295   4.836   4.698
27130SOL     OW93448   9.243   4.848   4.218
27130SOL    HW193449   9.311   4.921   4.225
27130SOL    HW293450   9.251   4.804   4.129
27131SOL     OW93451   9.806   5.140   5.483
27131SOL    HW193452   9.754   5.187   5.412
27131SOL    HW293453   9.883   5.197   5.511
27132SOL     OW93454   9.641   4.738   5.352
27132SOL    HW193455   9.665   4.738   5.255
27132SOL    HW293456   9.689   4.813   5.399
27133SOL     OW93457   9.371   5.104   4.794
27133SOL    HW193458   9.348   5.042   4.720
27133SOL    HW293459   9.297   5.107   4.861
27134SOL     OW93460   9.936   5.194   5.102
27134SOL    HW193461   9.877   5.274   5.093
27134SOL    HW293462   9.927   5.136   5.021
27135SOL     OW93463   9.372   3.965   5.401
27135SOL    HW193464   9.384   3.962   5.301
27135SOL    HW293465   9.276   3.943   5.422
27136SOL     OW93466   9.279   5.400   5.325
27136SOL    HW193467   9.365   5.417   5.372
27136SOL    HW293468   9.203   5.414   5.389
27137SOL     OW93469   9.454   4.059   4.350
27137SOL    HW193470   9.411   4.134   4.400
27137SOL    HW293471   9.468   3.982   4.412
27138SOL     OW93472   9.532   4.324   3.949
27138SOL    HW193473   9.619   4.338   3.900
27138SOL    HW293474   9.538   4.367   4.039
27139SOL     OW93475   9.589   5.423   4.506
27139SOL    HW193476   9.531   5.383   4.434
27139SOL    HW293477   9.682   5.389   4.496
27140SOL     OW93478   9.617   5.032   4.904
27140SOL    HW193479   9.609   5.049   5.002
27140SOL    HW293480   9.536   5.066   4.857
27141SOL     OW93481   9.575   4.532   4.453
27141SOL    HW193482   9.596   4.619   4.498
27141SOL    HW293483   9.648   4.467   4.472
27142SOL     OW93484   9.492   4.052   3.930
27142SOL    HW193485   9.539   4.015   3.850
27142SOL    HW293486   9.505   4.151   3.933
27143SOL     OW93487   9.338   4.252   4.504
27143SOL    HW193488   9.261   4.291   4.555
27143SOL    HW293489   9.417   4.242   4.565
27144SOL     OW93490   9.753   4.818   3.929
27144SOL    HW193491   9.851   4.839   3.923
27144SOL    HW293492   9.700   4.900   3.907
27145SOL     OW93493   9.995   4.361   3.984
27145SOL    HW193494   0.082   4.318   3.959
27145SOL    HW293495   9.974   4.341   4.080
27146SOL     OW93496   9.310   3.768   3.845
27146SOL    HW193497   9.386   3.703   3.858
27146SOL    HW293498   9.336   3.857   3.880
27147SOL     OW93499   9.575   4.761   4.845
27147SOL    HW193500   9.589   4.700   4.923
27147SOL    HW293501   9.601   4.854   4.871
27148SOL     OW93502   9.802   4.363   4.882
27148SOL    HW193503   9.838   4.421   4.956
27148SOL    HW293504   9.718   4.319   4.912
27149SOL     OW93505   9.973   4.776   5.171
27149SOL    HW193506   0.073   4.773   5.179
27149SOL    HW293507   9.933   4.814   5.254
27150SOL     OW93508   9.859   3.780   4.664
27150SOL    HW193509   9.840   3.716   4.589
27150SOL    HW293510   9.921   3.737   4.730
27151SOL     OW93511   9.531   5.517   4.949
27151SOL    HW193512   9.507   5.466   4.866
27151SOL    HW293513   9.449   5.525   5.007
27152SOL     OW93514   9.304   4.715   4.819
27152SOL    HW193515   9.400   4.725   4.845
27152SOL    HW293516   9.295   4.643   4.750
27153SOL     OW93517   9.501   3.679   4.142
27153SOL    HW193518   9.555   3.761   4.159
27153SOL    HW293519   9.406   3.696   4.169
27154SOL     OW93520   0.023   4.446   5.404
27154SOL    HW193521   9.940   4.407   5.365
27154SOL    HW293522   0.096   4.378   5.402
27155SOL     OW93523   9.330   4.761   3.962
27155SOL    HW193524   9.336   4.663   3.942
27155SOL    HW293525   9.367   4.813   3.885
27156SOL     OW93526   9.471   4.569   5.048
27156SOL    HW193527   9.507   4.491   5.098
27156SOL    HW293528   9.428   4.633   5.112
27157SOL     OW93529   9.989   5.278   3.719
27157SOL    HW193530   9.974   5.325   3.807
27157SOL    HW293531   0.054   5.203   3.733
27158SOL     OW93532   9.875   5.287   4.741
27158SOL    HW193533   9.858   5.284   4.642
27158SOL    HW293534   9.865   5.195   4.779
27159SOL     OW93535   9.340   4.546   4.602
27159SOL    HW193536   9.424   4.531   4.550
27159SOL    HW293537   9.268   4.579   4.541
27160SOL     OW93538   9.249   4.626   5.518
27160SOL    HW193539   9.149   4.624   5.514
27160SOL    HW293540   9.280   4.575   5.598
27161SOL     OW93541   9.697   4.214   5.473
27161SOL    HW193542   9.742   4.252   5.393
27161SOL    HW293543   9.728   4.262   5.555
27162SOL     OW93544   9.711   4.663   4.151
27162SOL    HW193545   9.720   4.713   4.065
27162SOL    HW293546   9.639   4.593   4.142
27163SOL     OW93547   9.246   3.770   4.187
27163SOL    HW193548   9.149   3.749   4.178
27163SOL    HW293549   9.261   3.867   4.167
27164SOL     OW93550   9.665   5.291   5.303
27164SOL    HW193551   9.607   5.353   5.355
27164SOL    HW293552   9.702   5.340   5.223
27165SOL     OW93553   9.672   5.145   4.314
27165SOL    HW193554   9.662   5.046   4.322
27165SOL    HW293555   9.581   5.188   4.320
27166SOL     OW93556   9.509   5.471   5.454
27166SOL    HW193557   9.508   5.569   5.437
27166SOL    HW293558   9.521   5.455   5.552
27167SOL     OW93559   9.386   4.968   5.327
27167SOL    HW193560   9.364   4.873   5.307
27167SOL    HW293561   9.311   5.027   5.298
27168SOL     OW93562   9.436   5.372   4.734
27168SOL    HW193563   9.422   5.273   4.745
27168SOL    HW293564   9.490   5.389   4.652
27169SOL     OW93565   9.721   4.288   4.396
27169SOL    HW193566   9.660   4.232   4.340
27169SOL    HW293567   9.808   4.300   4.349
27170SOL     OW93568   9.713   4.809   5.100
27170SOL    HW193569   9.813   4.805   5.105
27170SOL    HW293570   9.682   4.901   5.123
27171SOL     OW93571   9.433   4.918   3.769
27171SOL    HW193572   9.405   4.935   3.675
27171SOL    HW293573   9.504   4.983   3.795
27172SOL     OW93574   9.920   5.395   3.963
27172SOL    HW193575   9.858   5.464   3.925
27172SOL    HW293576   9.866   5.321   4.004
27173SOL     OW93577   9.759   5.416   5.077
27173SOL    HW193578   9.824   5.492   5.077
27173SOL    HW293579   9.679   5.441   5.024
27174SOL     OW93580   9.419   4.236   5.414
27174SOL    HW193581   9.395   4.139   5.410
27174SOL    HW293582   9.512   4.245   5.450
27175SOL     OW93583   9.181   4.641   4.392
27175SOL    HW193584   9.213   4.719   4.338
27175SOL    HW293585   9.082   4.644   4.400
27176SOL     OW93586   9.806   4.355   5.257
27176SOL    HW193587   9.708   4.360   5.234
27176SOL    HW293588   9.858   4.407   5.190
27177SOL     OW93589   9.983   4.235   4.732
27177SOL    HW193590   0.069   4.258   4.777
27177SOL    HW293591   9.908   4.282   4.778
27178SOL     OW93592   9.891   5.035   4.867
27178SOL    HW193593   9.792   5.029   4.878
27178SOL    HW293594   9.929   4.944   4.853
27179SOL     OW93595   9.383   4.403   4.839
27179SOL    HW193596   9.410   4.469   4.909
27179SOL    HW293597   9.374   4.449   4.751
27180SOL     OW93598   9.602   5.051   5.178
27180SOL    HW193599   9.634   5.138   5.217
27180SOL    HW293600   9.524   5.018   5.232
27181SOL     OW93601   9.594   3.973   5.552
27181SOL    HW193602   9.513   3.961   5.495
27181SOL    HW293603   9.645   4.053   5.523
27182SOL     OW93604   9.807   5.179   5.915
27182SOL    HW193605   9.754   5.176   5.999
27182SOL    HW293606   9.889   5.123   5.925
27183SOL     OW93607   9.747   3.768   5.653
27183SOL    HW193608   9.843   3.791   5.661
27183SOL    HW293609   9.696   3.846   5.615
27184SOL     OW93610   9.642   4.877   6.160
27184SOL    HW193611   9.622   4.847   6.253
27184SOL    HW293612   9.682   4.801   6.108
27185SOL     OW93613   9.656   5.082   5.701
27185SOL    HW193614   9.707   5.107   5.619
27185SOL    HW293615   9.699   5.124   5.781
27186SOL     OW93616   9.811   4.000   6.568
27186SOL    HW193617   9.887   4.064   6.566
27186SOL    HW293618   9.845   3.907   6.552
27187SOL     OW93619   9.536   4.480   6.040
27187SOL    HW193620   9.574   4.503   6.130
27187SOL    HW293621   9.440   4.454   6.050
27188SOL     OW93622   9.376   4.672   7.142
27188SOL    HW193623   9.471   4.685   7.168
27188SOL    HW293624   9.320   4.660   7.224
27189SOL     OW93625   9.778   4.366   5.683
27189SOL    HW193626   9.759   4.457   5.645
27189SOL    HW293627   9.865   4.367   5.731
27190SOL     OW93628   9.819   5.322   6.310
27190SOL    HW193629   9.906   5.344   6.268
27190SOL    HW293630   9.771   5.254   6.254
27191SOL     OW93631   9.477   4.975   5.957
27191SOL    HW193632   9.538   4.937   6.026
27191SOL    HW293633   9.444   4.901   5.898
27192SOL     OW93634   9.587   4.235   6.703
27192SOL    HW193635   9.577   4.138   6.722
27192SOL    HW293636   9.498   4.280   6.707
27193SOL     OW93637   9.607   3.971   6.002
27193SOL    HW193638   9.557   4.010   6.079
27193SOL    HW293639   9.573   4.010   5.917
27194SOL     OW93640   9.923   4.880   7.233
27194SOL    HW193641   9.874   4.954   7.280
27194SOL    HW293642   9.961   4.818   7.301
27195SOL     OW93643   9.283   4.410   6.118
27195SOL    HW193644   9.299   4.344   6.192
27195SOL    HW293645   9.250   4.496   6.158
27196SOL     OW93646   9.669   3.958   6.325
27196SOL    HW193647   9.708   3.976   6.416
27196SOL    HW293648   9.704   3.871   6.291
27197SOL     OW93649   9.601   3.954   6.744
27197SOL    HW193650   9.578   3.857   6.737
27197SOL    HW293651   9.678   3.975   6.684
27198SOL     OW93652   9.413   5.232   5.880
27198SOL    HW193653   9.437   5.136   5.899
27198SOL    HW293654   9.473   5.268   5.808
27199SOL     OW93655   9.423   5.279   6.157
27199SOL    HW193656   9.330   5.293   6.189
27199SOL    HW293657   9.426   5.283   6.057
27200SOL     OW93658   9.716   4.610   5.591
27200SOL    HW193659   9.681   4.638   5.501
27200SOL    HW293660   9.725   4.690   5.650
27201SOL     OW93661   9.325   4.503   5.750
27201SOL    HW193662   9.405   4.443   5.755
27201SOL    HW293663   9.248   4.459   5.795
27202SOL     OW93664   0.037   5.450   6.682
27202SOL    HW193665   0.118   5.423   6.630
27202SOL    HW293666   9.962   5.387   6.662
27203SOL     OW93667   9.493   4.281   7.045
27203SOL    HW193668   9.475   4.194   6.999
27203SOL    HW293669   9.454   4.280   7.137
27204SOL     OW93670   9.431   4.023   6.956
27204SOL    HW193671   9.500   3.994   6.890
27204SOL    HW293672   9.340   4.004   6.921
27205SOL     OW93673   9.571   4.801   6.422
27205SOL    HW193674   9.480   4.841   6.417
27205SOL    HW293675   9.600   4.795   6.517
27206SOL     OW93676   9.284   4.004   5.980
27206SOL    HW193677   9.346   4.028   5.906
27206SOL    HW293678   9.330   4.016   6.068
27207SOL     OW93679   9.923   4.472   6.931
27207SOL    HW193680   9.939   4.567   6.958
27207SOL    HW293681   0.006   4.419   6.946
27208SOL     OW93682   9.297   5.507   6.927
27208SOL    HW193683   9.246   5.593   6.926
27208SOL    HW293684   9.296   5.468   7.019
27209SOL     OW93685   9.580   4.320   6.439
27209SOL    HW193686   9.647   4.281   6.375
27209SOL    HW293687   9.599   4.288   6.531
27210SOL     OW93688   9.548   5.469   5.731
27210SOL    HW193689   9.634   5.513   5.706
27210SOL    HW293690   9.533   5.479   5.830
27211SOL     OW93691   9.309   4.900   6.458
27211SOL    HW193692   9.220   4.894   6.414
27211SOL    HW293693   9.310   4.841   6.539
27212SOL     OW93694   9.232   4.860   6.054
27212SOL    HW193695   9.299   4.933   6.067
27212SOL    HW293696   9.245   4.818   5.965
27213SOL     OW93697   9.809   5.123   7.318
27213SOL    HW193698   9.753   5.173   7.253
27213SOL    HW293699   9.886   5.180   7.347
27214SOL     OW93700   9.627   4.738   7.219
27214SOL    HW193701   9.670   4.756   7.130
27214SOL    HW293702   9.606   4.826   7.263
27215SOL     OW93703   9.399   5.106   6.623
27215SOL    HW193704   9.371   5.044   6.549
27215SOL    HW293705   9.323   5.119   6.687
27216SOL     OW93706   9.951   5.198   6.962
27216SOL    HW193707   9.883   5.269   6.947
27216SOL    HW293708   9.950   5.134   6.885
27217SOL     OW93709   9.396   3.946   7.228
27217SOL    HW193710   9.405   3.969   7.131
27217SOL    HW293711   9.299   3.933   7.250
27218SOL     OW93712   9.288   5.401   7.180
27218SOL    HW193713   9.365   5.424   7.238
27218SOL    HW293714   9.203   5.430   7.223
27219SOL     OW93715   9.431   4.046   6.213
27219SOL    HW193716   9.394   4.127   6.259
27219SOL    HW293717   9.510   4.012   6.265
27220SOL     OW93718   9.539   4.330   5.809
27220SOL    HW193719   9.626   4.338   5.760
27220SOL    HW293720   9.546   4.376   5.897
27221SOL     OW93721   9.566   5.442   6.331
27221SOL    HW193722   9.512   5.398   6.259
27221SOL    HW293723   9.661   5.413   6.324
27222SOL     OW93724   9.649   5.072   6.734
27222SOL    HW193725   9.638   5.077   6.833
27222SOL    HW293726   9.562   5.093   6.690
27223SOL     OW93727   9.589   4.555   6.297
27223SOL    HW193728   9.603   4.640   6.348
27223SOL    HW293729   9.610   4.477   6.356
27224SOL     OW93730   9.467   4.065   5.782
27224SOL    HW193731   9.513   4.029   5.701
27224SOL    HW293732   9.483   4.164   5.788
27225SOL     OW93733   9.324   4.261   6.346
27225SOL    HW193734   9.246   4.304   6.391
27225SOL    HW293735   9.409   4.290   6.391
27226SOL     OW93736   9.756   4.828   5.756
27226SOL    HW193737   9.852   4.852   5.761
27226SOL    HW293738   9.701   4.910   5.740
27227SOL     OW93739   0.012   4.381   5.827
27227SOL    HW193740   0.100   4.341   5.801
27227SOL    HW293741   9.987   4.352   5.919
27228SOL     OW93742   9.297   3.767   5.723
27228SOL    HW193743   9.379   3.714   5.742
27228SOL    HW293744   9.316   3.864   5.736
27229SOL     OW93745   9.610   4.798   6.700
27229SOL    HW193746   9.643   4.756   6.784
27229SOL    HW293747   9.624   4.897   6.704
27230SOL     OW93748   9.827   4.370   6.693
27230SOL    HW193749   9.852   4.415   6.779
27230SOL    HW293750   9.737   4.327   6.704
27231SOL     OW93751   9.983   4.733   7.014
27231SOL    HW193752   0.083   4.725   7.017
27231SOL    HW293753   9.951   4.784   7.094
27232SOL     OW93754   9.865   3.743   6.497
27232SOL    HW193755   9.841   3.736   6.400
27232SOL    HW293756   9.863   3.653   6.538
27233SOL     OW93757   9.536   5.509   6.793
27233SOL    HW193758   9.515   5.464   6.706
27233SOL    HW293759   9.454   5.510   6.850
27234SOL     OW93760   9.343   4.723   6.661
27234SOL    HW193761   9.437   4.737   6.693
27234SOL    HW293762   9.343   4.653   6.589
27235SOL     OW93763   9.581   3.705   6.036
27235SOL    HW193764   9.605   3.801   6.019
27235SOL    HW293765   9.483   3.698   6.058
27236SOL     OW93766   9.964   4.449   7.266
27236SOL    HW193767   9.885   4.411   7.218
27236SOL    HW293768   0.039   4.383   7.262
27237SOL     OW93769   9.338   4.778   5.800
27237SOL    HW193770   9.347   4.680   5.784
27237SOL    HW293771   9.375   4.828   5.722
27238SOL     OW93772   9.438   4.517   6.911
27238SOL    HW193773   9.464   4.433   6.958
27238SOL    HW293774   9.424   4.590   6.978
27239SOL     OW93775   0.011   5.291   5.574
27239SOL    HW193776   9.991   5.338   5.660
27239SOL    HW293777   0.076   5.217   5.591
27240SOL     OW93778   9.839   5.288   6.587
27240SOL    HW193779   9.825   5.291   6.488
27240SOL    HW293780   9.771   5.227   6.629
27241SOL     OW93781   9.347   4.554   6.445
27241SOL    HW193782   9.431   4.544   6.393
27241SOL    HW293783   9.273   4.584   6.384
27242SOL     OW93784   9.238   4.615   7.367
27242SOL    HW193785   9.178   4.537   7.350
27242SOL    HW293786   9.291   4.599   7.451
27243SOL     OW93787   9.680   4.232   7.348
27243SOL    HW193788   9.717   4.268   7.262
27243SOL    HW293789   9.719   4.282   7.425
27244SOL     OW93790   9.726   4.677   5.987
27244SOL    HW193791   9.729   4.722   5.898
27244SOL    HW293792   9.657   4.605   5.986
27245SOL     OW93793   9.311   3.727   6.047
27245SOL    HW193794   9.249   3.656   6.014
27245SOL    HW293795   9.276   3.817   6.022
27246SOL     OW93796   9.659   5.286   7.156
27246SOL    HW193797   9.604   5.349   7.211
27246SOL    HW293798   9.695   5.334   7.077
27247SOL     OW93799   9.671   5.151   6.155
27247SOL    HW193800   9.664   5.052   6.162
27247SOL    HW293801   9.580   5.192   6.159
27248SOL     OW93802   9.516   5.467   7.327
27248SOL    HW193803   9.546   5.563   7.322
27248SOL    HW293804   9.534   5.432   7.419
27249SOL     OW93805   9.391   4.964   7.152
27249SOL    HW193806   9.362   4.869   7.138
27249SOL    HW293807   9.315   5.026   7.132
27250SOL     OW93808   9.447   5.375   6.570
27250SOL    HW193809   9.438   5.276   6.575
27250SOL    HW293810   9.488   5.400   6.482
27251SOL     OW93811   9.754   4.224   6.256
27251SOL    HW193812   9.740   4.125   6.250
27251SOL    HW293813   9.818   4.254   6.185
27252SOL     OW93814   9.720   4.801   6.961
27252SOL    HW193815   9.818   4.784   6.963
27252SOL    HW293816   9.703   4.899   6.975
27253SOL     OW93817   9.443   4.932   5.603
27253SOL    HW193818   9.426   4.950   5.506
27253SOL    HW293819   9.513   4.996   5.637
27254SOL     OW93820   9.918   5.411   5.811
27254SOL    HW193821   9.854   5.477   5.772
27254SOL    HW293822   9.868   5.333   5.848
27255SOL     OW93823   9.754   5.399   6.926
27255SOL    HW193824   9.818   5.475   6.934
27255SOL    HW293825   9.676   5.427   6.870
27256SOL     OW93826   9.405   4.225   7.301
27256SOL    HW193827   9.392   4.126   7.293
27256SOL    HW293828   9.497   4.243   7.337
27257SOL     OW93829   9.192   4.641   6.226
27257SOL    HW193830   9.223   4.721   6.175
27257SOL    HW293831   9.092   4.640   6.230
27258SOL     OW93832   9.755   4.347   7.109
27258SOL    HW193833   9.662   4.330   7.076
27258SOL    HW293834   9.807   4.395   7.038
27259SOL     OW93835   0.012   4.212   6.579
27259SOL    HW193836   0.098   4.242   6.620
27259SOL    HW293837   9.937   4.269   6.613
27260SOL     OW93838   9.927   5.019   6.747
27260SOL    HW193839   9.829   5.033   6.734
27260SOL    HW293840   9.952   4.926   6.719
27261SOL     OW93841   9.360   4.394   6.680
27261SOL    HW193842   9.384   4.450   6.759
27261SOL    HW293843   9.360   4.450   6.597
27262SOL     OW93844   9.611   5.055   7.009
27262SOL    HW193845   9.639   5.139   7.057
27262SOL    HW293846   9.530   5.017   7.053
27263SOL     OW93847   9.604   3.978   7.411
27263SOL    HW193848   9.533   3.956   7.345
27263SOL    HW293849   9.646   4.066   7.385
27264SOL     OW93850   9.848   5.172   7.762
27264SOL    HW193851   9.802   5.164   7.851
27264SOL    HW293852   9.937   5.127   7.766
27265SOL     OW93853   9.760   3.777   7.516
27265SOL    HW193854   9.858   3.798   7.512
27265SOL    HW293855   9.708   3.854   7.480
27266SOL     OW93856   9.672   4.864   8.043
27266SOL    HW193857   9.641   4.831   8.132
27266SOL    HW293858   9.709   4.788   7.990
27267SOL     OW93859   9.683   5.079   7.553
27267SOL    HW193860   9.729   5.099   7.467
27267SOL    HW293861   9.734   5.120   7.629
27268SOL     OW93862   9.776   3.996   8.410
27268SOL    HW193863   9.845   4.068   8.408
27268SOL    HW293864   9.820   3.908   8.393
27269SOL     OW93865   9.495   4.515   7.885
27269SOL    HW193866   9.507   4.508   7.984
27269SOL    HW293867   9.401   4.546   7.866
27270SOL     OW93868   9.371   4.698   8.999
27270SOL    HW193869   9.467   4.710   9.024
27270SOL    HW293870   9.320   4.664   9.078
27271SOL     OW93871   9.775   4.380   7.555
27271SOL    HW193872   9.760   4.469   7.513
27271SOL    HW293873   9.864   4.379   7.602
27272SOL     OW93874   9.969   5.141   8.163
27272SOL    HW193875   0.040   5.191   8.115
27272SOL    HW293876   9.885   5.140   8.108
27273SOL     OW93877   9.539   4.963   7.821
27273SOL    HW193878   9.591   4.920   7.895
27273SOL    HW293879   9.507   4.893   7.758
27274SOL     OW93880   9.598   4.213   8.687
27274SOL    HW193881   9.595   4.115   8.667
27274SOL    HW293882   9.516   4.258   8.650
27275SOL     OW93883   9.594   3.889   7.868
27275SOL    HW193884   9.559   3.937   7.948
27275SOL    HW293885   9.582   3.946   7.787
27276SOL     OW93886   9.934   4.870   9.105
27276SOL    HW193887   9.866   4.918   9.161
27276SOL    HW293888   9.962   4.786   9.153
27277SOL     OW93889   9.209   4.326   7.950
27277SOL    HW193890   9.245   4.288   8.035
27277SOL    HW293891   9.219   4.426   7.951
27278SOL     OW93892   9.578   3.895   8.232
27278SOL    HW193893   9.651   3.920   8.295
27278SOL    HW293894   9.584   3.798   8.209
27279SOL     OW93895   9.599   3.942   8.626
27279SOL    HW193896   9.602   3.845   8.649
27279SOL    HW293897   9.662   3.961   8.550
27280SOL     OW93898   9.502   5.226   7.767
27280SOL    HW193899   9.520   5.128   7.776
27280SOL    HW293900   9.556   5.262   7.691
27281SOL     OW93901   9.508   5.321   8.028
27281SOL    HW193902   9.431   5.384   8.035
27281SOL    HW293903   9.513   5.285   7.934
27282SOL     OW93904   9.714   4.620   7.455
27282SOL    HW193905   9.684   4.652   7.365
27282SOL    HW293906   9.726   4.698   7.516
27283SOL     OW93907   9.362   4.526   7.594
27283SOL    HW193908   9.444   4.469   7.597
27283SOL    HW293909   9.283   4.472   7.625
27284SOL     OW93910   0.030   5.463   8.502
27284SOL    HW193911   0.118   5.448   8.457
27284SOL    HW293912   9.967   5.389   8.479
27285SOL     OW93913   9.596   4.353   8.922
27285SOL    HW193914   9.596   4.290   8.844
27285SOL    HW293915   9.533   4.319   8.992
27286SOL     OW93916   9.359   3.947   8.781
27286SOL    HW193917   9.441   3.948   8.723
27286SOL    HW293918   9.300   4.024   8.755
27287SOL     OW93919   9.566   4.763   8.283
27287SOL    HW193920   9.475   4.802   8.279
27287SOL    HW293921   9.594   4.752   8.379
27288SOL     OW93922   9.303   3.972   7.828
27288SOL    HW193923   9.367   3.996   7.755
27288SOL    HW293924   9.344   3.993   7.917
27289SOL     OW93925   9.939   4.565   8.702
27289SOL    HW193926   9.930   4.650   8.753
27289SOL    HW293927   0.034   4.535   8.703
27290SOL     OW93928   9.315   5.532   8.759
27290SOL    HW193929   9.264   5.618   8.766
27290SOL    HW293930   9.320   5.489   8.849
27291SOL     OW93931   9.555   4.214   8.309
27291SOL    HW193932   9.621   4.252   8.244
27291SOL    HW293933   9.599   4.140   8.360
27292SOL     OW93934   9.613   5.419   7.586
27292SOL    HW193935   9.684   5.473   7.540
27292SOL    HW293936   9.592   5.459   7.675
27293SOL     OW93937   9.301   4.858   8.320
27293SOL    HW193938   9.227   4.827   8.261
27293SOL    HW293939   9.300   4.805   8.405
27294SOL     OW93940   9.276   4.880   7.880
27294SOL    HW193941   9.352   4.937   7.908
27294SOL    HW293942   9.290   4.848   7.786
27295SOL     OW93943   9.788   5.126   9.181
27295SOL    HW193944   9.736   5.174   9.111
27295SOL    HW293945   9.877   5.169   9.192
27296SOL     OW93946   9.621   4.755   9.088
27296SOL    HW193947   9.660   4.787   9.001
27296SOL    HW293948   9.590   4.833   9.141
27297SOL     OW93949   9.362   5.088   8.474
27297SOL    HW193950   9.342   5.016   8.407
27297SOL    HW293951   9.287   5.094   8.540
27298SOL     OW93952   9.943   5.178   8.804
27298SOL    HW193953   9.883   5.257   8.795
27298SOL    HW293954   9.932   5.118   8.724
27299SOL     OW93955   9.395   3.972   9.055
27299SOL    HW193956   9.386   3.963   8.956
27299SOL    HW293957   9.307   3.951   9.099
27300SOL     OW93958   9.328   5.407   9.005
27300SOL    HW193959   9.411   5.420   9.059
27300SOL    HW293960   9.248   5.431   9.060
27301SOL     OW93961   9.436   4.038   8.056
27301SOL    HW193962   9.384   4.112   8.099
27301SOL    HW293963   9.485   3.987   8.126
27302SOL     OW93964   9.545   4.325   7.686
27302SOL    HW193965   9.633   4.343   7.643
27302SOL    HW293966   9.533   4.386   7.765
27303SOL     OW93967   9.683   5.520   8.129
27303SOL    HW193968   9.626   5.444   8.099
27303SOL    HW293969   9.730   5.560   8.050
27304SOL     OW93970   9.615   5.031   8.590
27304SOL    HW193971   9.604   5.062   8.685
27304SOL    HW293972   9.535   5.058   8.537
27305SOL     OW93973   9.532   4.515   8.157
27305SOL    HW193974   9.562   4.599   8.202
27305SOL    HW293975   9.607   4.450   8.153
27306SOL     OW93976   9.503   4.054   7.659
27306SOL    HW193977   9.539   4.023   7.571
27306SOL    HW293978   9.516   4.153   7.668
27307SOL     OW93979   9.304   4.237   8.195
27307SOL    HW193980   9.231   4.270   8.255
27307SOL    HW293981   9.390   4.235   8.247
27308SOL     OW93982   9.767   4.825   7.632
27308SOL    HW193983   9.864   4.845   7.626
27308SOL    HW293984   9.714   4.907   7.613
27309SOL     OW93985   0.008   4.378   7.699
27309SOL    HW193986   0.094   4.332   7.674
27309SOL    HW293987   9.982   4.351   7.791
27310SOL     OW93988   9.226   3.605   7.563
27310SOL    HW193989   9.320   3.613   7.531
27310SOL    HW293990   9.218   3.649   7.652
27311SOL     OW93991   9.594   4.756   8.566
27311SOL    HW193992   9.604   4.703   8.651
27311SOL    HW293993   9.612   4.853   8.584
27312SOL     OW93994   9.808   4.352   8.560
27312SOL    HW193995   9.837   4.433   8.610
27312SOL    HW293996   9.732   4.308   8.609
27313SOL     OW93997   9.981   4.793   8.850
27313SOL    HW193998   0.080   4.778   8.852
27313SOL    HW293999   9.949   4.821   8.941
27314SOL     OW94000   9.880   3.750   8.361
27314SOL    HW194001   9.875   3.675   8.296
27314SOL    HW294002   9.927   3.721   8.444
27315SOL     OW94003   9.548   5.503   8.616
27315SOL    HW194004   9.523   5.451   8.535
27315SOL    HW294005   9.468   5.515   8.674
27316SOL     OW94006   9.323   4.706   8.546
27316SOL    HW194007   9.418   4.725   8.570
27316SOL    HW294008   9.318   4.624   8.490
27317SOL     OW94009   9.470   3.657   7.792
27317SOL    HW194010   9.525   3.734   7.826
27317SOL    HW294011   9.376   3.667   7.825
27318SOL     OW94012   9.998   4.347   9.146
27318SOL    HW194013   9.948   4.370   9.062
27318SOL    HW294014   0.093   4.324   9.122
27319SOL     OW94015   9.405   4.792   7.647
27319SOL    HW194016   9.391   4.694   7.630
27319SOL    HW294017   9.428   4.837   7.560
27320SOL     OW94018   9.500   4.571   8.784
27320SOL    HW194019   9.547   4.499   8.836
27320SOL    HW294020   9.447   4.628   8.846
27321SOL     OW94021   0.009   5.279   7.417
27321SOL    HW194022   9.996   5.331   7.502
27321SOL    HW294023   0.073   5.204   7.433
27322SOL     OW94024   9.894   5.250   8.407
27322SOL    HW194025   9.915   5.216   8.316
27322SOL    HW294026   9.876   5.173   8.468
27323SOL     OW94027   9.349   4.499   8.373
27323SOL    HW194028   9.406   4.495   8.290
27323SOL    HW294029   9.264   4.449   8.357
27324SOL     OW94030   9.244   4.609   9.217
27324SOL    HW194031   9.145   4.620   9.218
27324SOL    HW294032   9.273   4.556   9.297
27325SOL     OW94033   9.776   4.175   9.216
27325SOL    HW194034   9.859   4.208   9.172
27325SOL    HW294035   9.749   4.238   9.288
27326SOL     OW94036   9.731   4.665   7.857
27326SOL    HW194037   9.739   4.716   7.771
27326SOL    HW294038   9.648   4.608   7.854
27327SOL     OW94039   9.198   3.721   7.829
27327SOL    HW194040   9.102   3.723   7.800
27327SOL    HW294041   9.233   3.814   7.835
27328SOL     OW94042   9.667   5.299   9.003
27328SOL    HW194043   9.627   5.368   9.063
27328SOL    HW294044   9.706   5.343   8.922
27329SOL     OW94045   9.735   5.136   8.017
27329SOL    HW194046   9.709   5.040   8.029
27329SOL    HW294047   9.657   5.194   8.036
27330SOL     OW94048   9.537   5.471   9.179
27330SOL    HW194049   9.522   5.569   9.181
27330SOL    HW294050   9.556   5.439   9.272
27331SOL     OW94051   9.375   4.984   8.997
27331SOL    HW194052   9.350   4.888   8.983
27331SOL    HW294053   9.299   5.042   8.968
27332SOL     OW94054   9.442   5.347   8.406
27332SOL    HW194055   9.418   5.252   8.428
27332SOL    HW294056   9.485   5.351   8.316
27333SOL     OW94057   9.708   4.305   8.091
27333SOL    HW194058   9.657   4.240   8.034
27333SOL    HW294059   9.800   4.317   8.055
27334SOL     OW94060   9.708   4.842   8.844
27334SOL    HW194061   9.807   4.838   8.826
27334SOL    HW294062   9.678   4.937   8.840
27335SOL     OW94063   9.490   4.926   7.419
27335SOL    HW194064   9.448   4.963   7.337
27335SOL    HW294065   9.546   4.997   7.463
27336SOL     OW94066   9.940   5.411   7.656
27336SOL    HW194067   9.874   5.472   7.611
27336SOL    HW294068   9.892   5.332   7.693
27337SOL     OW94069   9.763   5.397   8.765
27337SOL    HW194070   9.823   5.476   8.774
27337SOL    HW294071   9.687   5.419   8.704
27338SOL     OW94072   9.418   4.243   9.108
27338SOL    HW194073   9.411   4.145   9.090
27338SOL    HW294074   9.444   4.259   9.203
27339SOL     OW94075   9.226   4.606   7.920
27339SOL    HW194076   9.256   4.701   7.919
27339SOL    HW294077   9.127   4.602   7.933
27340SOL     OW94078   9.864   4.408   8.924
27340SOL    HW194079   9.766   4.391   8.932
27340SOL    HW294080   9.882   4.462   8.841
27341SOL     OW94081   9.984   4.211   8.411
27341SOL    HW194082   0.070   4.239   8.453
27341SOL    HW294083   9.909   4.262   8.453
27342SOL     OW94084   9.891   5.027   8.570
27342SOL    HW194085   9.791   5.023   8.574
27342SOL    HW294086   9.928   4.936   8.550
27343SOL     OW94087   9.386   4.377   8.619
27343SOL    HW194088   9.418   4.451   8.678
27343SOL    HW294089   9.380   4.410   8.525
27344SOL     OW94090   9.586   5.086   8.855
27344SOL    HW194091   9.619   5.167   8.902
27344SOL    HW294092   9.506   5.049   8.904
27345SOL     OW94093   9.608   3.961   9.226
27345SOL    HW194094   9.535   3.965   9.158
27345SOL    HW294095   9.669   4.040   9.215
27346SOL     OW94096   9.851   5.211   9.653
27346SOL    HW194097   9.799   5.221   9.737
27346SOL    HW294098   9.944   5.180   9.674
27347SOL     OW94099   9.781   3.776   9.322
27347SOL    HW194100   9.870   3.818   9.341
27347SOL    HW294101   9.721   3.843   9.280
27348SOL     OW94102   9.702   4.928   9.884
27348SOL    HW194103   9.623   4.919   9.944
27348SOL    HW294104   9.779   4.876   9.921
27349SOL     OW94105   9.728   5.076   9.442
27349SOL    HW194106   9.752   5.101   9.349
27349SOL    HW294107   9.777   5.135   9.506
27350SOL     OW94108   9.864   3.982   0.387
27350SOL    HW194109   9.908   4.060   0.342
27350SOL    HW294110   9.845   3.911   0.320
27351SOL     OW94111   9.492   4.551   9.672
27351SOL    HW194112   9.475   4.461   9.711
27351SOL    HW294113   9.442   4.620   9.724
27352SOL     OW94114   9.742   4.370   9.405
27352SOL    HW194115   9.735   4.459   9.360
27352SOL    HW294116   9.833   4.361   9.446
27353SOL     OW94117   9.572   5.005   9.655
27353SOL    HW194118   9.626   4.971   9.732
27353SOL    HW294119   9.632   5.017   9.575
27354SOL     OW94120   9.598   3.982   9.742
27354SOL    HW194121   9.672   4.038   9.779
27354SOL    HW294122   9.581   4.008   9.646
27355SOL     OW94123   9.311   4.384   9.809
27355SOL    HW194124   9.303   4.329   9.892
27355SOL    HW294125   9.304   4.481   9.833
27356SOL     OW94126   9.446   5.244   9.594
27356SOL    HW194127   9.490   5.154   9.603
27356SOL    HW294128   9.507   5.305   9.544
27357SOL     OW94129   9.401   5.187   9.867
27357SOL    HW194130   9.309   5.216   9.894
27357SOL    HW294131   9.414   5.206   9.770
27358SOL     OW94132   9.738   4.610   9.288
27358SOL    HW194133   9.694   4.649   9.207
27358SOL    HW294134   9.758   4.684   9.353
27359SOL     OW94135   9.326   4.506   9.456
27359SOL    HW194136   9.392   4.535   9.525
27359SOL    HW294137   9.248   4.461   9.501
27360SOL     OW94138   9.310   3.995   9.669
27360SOL    HW194139   9.373   4.003   9.592
27360SOL    HW294140   9.358   4.020   9.753
27361SOL     OW94141   9.594   5.460   9.473
27361SOL    HW194142   9.675   5.509   9.439
27361SOL    HW294143   9.573   5.492   9.566
27362SOL     OW94144   9.329   4.882   9.687
27362SOL    HW194145   9.415   4.933   9.694
27362SOL    HW294146   9.314   4.857   9.591
27363SOL     OW94147   9.983   3.999   0.005
27363SOL    HW194148   0.024   3.921   0.052
27363SOL    HW294149   0.037   4.081   0.023
27364SOL     OW94150   9.482   4.292   9.375
27364SOL    HW194151   9.577   4.321   9.391
27364SOL    HW294152   9.421   4.368   9.398
27365SOL     OW94153   9.653   5.480   9.923
27365SOL    HW194154   9.599   5.501   9.842
27365SOL    HW294155   9.677   5.383   9.923
27366SOL     OW94156   9.500   4.037   9.475
27366SOL    HW194157   9.544   3.987   9.399
27366SOL    HW294158   9.486   4.132   9.448
27367SOL     OW94159   9.264   4.257   0.044
27367SOL    HW194160   9.270   4.341   0.098
27367SOL    HW294161   9.310   4.183   0.092
27368SOL     OW94162   9.803   4.811   9.463
27368SOL    HW194163   9.902   4.827   9.466
27368SOL    HW294164   9.756   4.899   9.454
27369SOL     OW94165   0.026   4.369   9.417
27369SOL    HW194166   0.006   4.356   9.320
27369SOL    HW294167   0.111   4.322   9.440
27370SOL     OW94168   9.298   3.757   9.413
27370SOL    HW194169   9.389   3.716   9.412
27370SOL    HW294170   9.306   3.854   9.390
27371SOL     OW94171   9.527   3.717   9.675
27371SOL    HW194172   9.562   3.805   9.705
27371SOL    HW294173   9.434   3.705   9.710
27372SOL     OW94174   9.323   4.817   9.420
27372SOL    HW194175   9.325   4.721   9.392
27372SOL    HW294176   9.385   4.870   9.362
27373SOL     OW94177   0.019   5.262   9.228
27373SOL    HW194178   9.995   5.314   9.310
27373SOL    HW294179   0.083   5.190   9.252
27374SOL     OW94180   9.915   4.789   9.990
27374SOL    HW194181   9.979   4.808   9.915
27374SOL    HW294182   9.949   4.712   0.044
27375SOL     OW94183   9.760   4.613   9.655
27375SOL    HW194184   9.774   4.686   9.588
27375SOL    HW294185   9.664   4.583   9.651
27376SOL     OW94186   9.249   3.732   9.738
27376SOL    HW194187   9.150   3.718   9.740
27376SOL    HW294188   9.269   3.825   9.710
27377SOL     OW94189   9.677   5.203   9.892
27377SOL    HW194190   9.705   5.107   9.893
27377SOL    HW294191   9.578   5.209   9.888
27378SOL     OW94192   9.798   4.128   9.856
27378SOL    HW194193   9.851   4.067   9.914
27378SOL    HW294194   9.860   4.190   9.807
27379SOL     OW94195   9.499   4.953   9.242
27379SOL    HW194196   9.450   4.983   9.161
27379SOL    HW294197   9.550   5.030   9.281
27380SOL     OW94198   9.938   5.384   9.453
27380SOL    HW194199   9.886   5.468   9.435
27380SOL    HW294200   9.900   5.338   9.533
27381SOL     OW94201   9.283   4.657   9.838
27381SOL    HW194202   9.291   4.748   9.795
27381SOL    HW294203   9.193   4.647   9.879
27382SOL     OW94204   0.030   4.213   0.314
27382SOL    HW194205   0.129   4.220   0.316
27382SOL    HW294206   9.992   4.241   0.402
27383SOL     OW94207   9.652   5.735   0.012
27383SOL    HW194208   9.649   5.637   9.991
27383SOL    HW294209   9.638   5.787   9.927
27384SOL     OW94210   9.852   7.077   0.404
27384SOL    HW194211   9.852   7.097   0.502
27384SOL    HW294212   9.904   6.993   0.387
27385SOL     OW94213   9.844   5.656   0.198
27385SOL    HW194214   9.940   5.656   0.172
27385SOL    HW294215   9.789   5.690   0.121
27386SOL     OW94216   9.792   5.852   1.060
27386SOL    HW194217   9.860   5.925   1.057
27386SOL    HW294218   9.834   5.766   1.031
27387SOL     OW94219   9.451   6.336   0.406
27387SOL    HW194220   9.519   6.308   0.473
27387SOL    HW294221   9.380   6.391   0.450
27388SOL     OW94222   9.389   6.488   1.598
27388SOL    HW194223   9.487   6.507   1.611
27388SOL    HW294224   9.346   6.473   1.687
27389SOL     OW94225   9.677   6.162   0.043
27389SOL    HW194226   9.686   6.256   0.012
27389SOL    HW294227   9.719   6.100   9.977
27390SOL     OW94228   9.902   7.108   0.678
27390SOL    HW194229   0.001   7.121   0.673
27390SOL    HW294230   9.880   7.045   0.752
27391SOL     OW94231   9.577   6.055   1.221
27391SOL    HW194232   9.583   5.956   1.232
27391SOL    HW294233   9.515   6.093   1.290
27392SOL     OW94234   9.635   5.778   0.521
27392SOL    HW194235   9.576   5.848   0.561
27392SOL    HW294236   9.703   5.821   0.462
27393SOL     OW94237   9.932   6.718   1.683
27393SOL    HW194238   9.882   6.791   1.731
27393SOL    HW294239   9.959   6.648   1.749
27394SOL     OW94240   9.209   6.192   0.556
27394SOL    HW194241   9.244   6.158   0.643
27394SOL    HW294242   9.229   6.289   0.547
27395SOL     OW94243   9.629   5.818   0.837
27395SOL    HW194244   9.677   5.829   0.925
27395SOL    HW294245   9.640   5.724   0.805
27396SOL     OW94246   9.603   5.777   1.250
27396SOL    HW194247   9.583   5.679   1.248
27396SOL    HW294248   9.677   5.797   1.185
27397SOL     OW94249   9.695   6.424   9.958
27397SOL    HW194250   9.753   6.468   9.888
27397SOL    HW294251   9.696   6.479   0.041
27398SOL     OW94252   9.251   6.330   0.211
27398SOL    HW194253   9.334   6.336   0.267
27398SOL    HW294254   9.184   6.272   0.257
27399SOL     OW94255   0.018   7.318   1.079
27399SOL    HW194256   0.095   7.262   1.049
27399SOL    HW294257   0.022   7.328   1.178
27400SOL     OW94258   9.494   6.099   1.557
27400SOL    HW194259   9.470   6.008   1.521
27400SOL    HW294260   9.458   6.109   1.650
27401SOL     OW94261   9.427   5.855   1.453
27401SOL    HW194262   9.494   5.820   1.387
27401SOL    HW294263   9.335   5.833   1.422
27402SOL     OW94264   9.311   5.869   0.435
27402SOL    HW194265   9.371   5.860   0.355
27402SOL    HW294266   9.364   5.900   0.513
27403SOL     OW94267   9.915   6.308   1.404
27403SOL    HW194268   9.935   6.404   1.423
27403SOL    HW294269   9.999   6.254   1.415
27404SOL     OW94270   9.374   7.385   1.428
27404SOL    HW194271   9.298   7.444   1.401
27404SOL    HW294272   9.345   7.325   1.502
27405SOL     OW94273   9.551   6.138   0.953
27405SOL    HW194274   9.625   6.120   0.888
27405SOL    HW294275   9.573   6.095   1.041
27406SOL     OW94276   9.554   7.335   0.225
27406SOL    HW194277   9.633   7.342   0.164
27406SOL    HW294278   9.583   7.341   0.320
27407SOL     OW94279   9.231   6.689   0.929
27407SOL    HW194280   9.148   6.652   0.887
27407SOL    HW294281   9.257   6.632   1.007
27408SOL     OW94282   9.254   6.748   0.560
27408SOL    HW194283   9.289   6.772   0.650
27408SOL    HW294284   9.281   6.817   0.493
27409SOL     OW94285   9.819   6.954   1.789
27409SOL    HW194286   9.756   7.005   1.731
27409SOL    HW294287   9.900   7.010   1.808
27410SOL     OW94288   9.647   6.568   1.643
27410SOL    HW194289   9.683   6.569   1.550
27410SOL    HW294290   9.638   6.661   1.677
27411SOL     OW94291   9.215   6.944   1.030
27411SOL    HW194292   9.228   6.852   0.992
27411SOL    HW294293   9.210   6.938   1.130
27412SOL     OW94294   0.058   7.023   1.415
27412SOL    HW194295   0.091   7.098   1.473
27412SOL    HW294296   9.962   7.037   1.394
27413SOL     OW94297   9.382   5.822   1.727
27413SOL    HW194298   9.395   5.824   1.628
27413SOL    HW294299   9.288   5.792   1.748
27414SOL     OW94300   9.301   7.232   1.650
27414SOL    HW194301   9.381   7.244   1.710
27414SOL    HW294302   9.217   7.239   1.704
27415SOL     OW94303   9.445   5.930   0.666
27415SOL    HW194304   9.393   6.004   0.707
27415SOL    HW294305   9.501   5.886   0.736
27416SOL     OW94306   9.497   6.107   0.238
27416SOL    HW194307   9.564   6.132   0.168
27416SOL    HW294308   9.483   6.184   0.299
27417SOL     OW94309   9.803   7.365   0.673
27417SOL    HW194310   9.724   7.382   0.614
27417SOL    HW294311   9.823   7.267   0.676
27418SOL     OW94312   9.640   6.288   0.604
27418SOL    HW194313   9.615   6.348   0.680
27418SOL    HW294314   9.662   6.197   0.639
27419SOL     OW94315   9.485   5.839   0.211
27419SOL    HW194316   9.551   5.805   0.144
27419SOL    HW294317   9.497   5.937   0.223
27420SOL     OW94318   9.316   6.132   0.804
27420SOL    HW194319   9.234   6.161   0.854
27420SOL    HW294320   9.396   6.142   0.864
27421SOL     OW94321   9.728   6.588   0.186
27421SOL    HW194322   9.824   6.591   0.157
27421SOL    HW294323   9.704   6.674   0.231
27422SOL     OW94324   9.359   5.603   0.139
27422SOL    HW194325   9.425   5.528   0.139
27422SOL    HW294326   9.403   5.686   0.173
27423SOL     OW94327   9.524   6.669   1.208
27423SOL    HW194328   9.599   6.648   1.271
27423SOL    HW294329   9.531   6.764   1.178
27424SOL     OW94330   9.799   6.211   1.174
27424SOL    HW194331   9.833   6.258   1.256
27424SOL    HW294332   9.716   6.161   1.196
27425SOL     OW94333   9.998   6.578   1.460
27425SOL    HW194334   0.089   6.548   1.488
27425SOL    HW294335   9.955   6.629   1.535
27426SOL     OW94336   9.886   5.618   0.972
27426SOL    HW194337   9.838   5.551   0.915
27426SOL    HW294338   9.952   5.571   1.030
27427SOL     OW94339   9.295   6.539   1.150
27427SOL    HW194340   9.381   6.585   1.174
27427SOL    HW294341   9.313   6.442   1.134
27428SOL     OW94342   9.495   5.562   0.433
27428SOL    HW194343   9.548   5.644   0.453
27428SOL    HW294344   9.403   5.571   0.471
27429SOL     OW94345   9.970   6.266   1.729
27429SOL    HW194346   9.890   6.226   1.685
27429SOL    HW294347   0.047   6.202   1.723
27430SOL     OW94348   9.457   6.305   1.388
27430SOL    HW194349   9.470   6.232   1.454
27430SOL    HW294350   9.435   6.390   1.436
27431SOL     OW94351   0.079   7.043   0.048
27431SOL    HW194352   0.029   7.114   0.097
27431SOL    HW294353   0.077   6.958   0.100
27432SOL     OW94354   9.263   6.450   1.829
27432SOL    HW194355   9.163   6.457   1.822
27432SOL    HW294356   9.288   6.405   1.915
27433SOL     OW94357   9.740   6.001   1.806
27433SOL    HW194358   9.753   6.047   1.718
27433SOL    HW294359   9.759   6.065   1.881
27434SOL     OW94360   9.799   6.413   0.409
27434SOL    HW194361   9.749   6.459   0.335
27434SOL    HW294362   9.734   6.372   0.473
27435SOL     OW94363   9.227   5.618   0.493
27435SOL    HW194364   9.129   5.612   0.512
27435SOL    HW294365   9.250   5.713   0.474
27436SOL     OW94366   9.654   7.121   1.645
27436SOL    HW194367   9.602   7.166   1.717
27436SOL    HW294368   9.656   7.180   1.564
27437SOL     OW94369   9.507   7.277   1.827
27437SOL    HW194370   9.525   7.375   1.822
27437SOL    HW294371   9.508   7.247   1.922
27438SOL     OW94372   9.409   6.775   1.642
27438SOL    HW194373   9.377   6.685   1.613
27438SOL    HW294374   9.341   6.844   1.616
27439SOL     OW94375   9.728   6.056   0.729
27439SOL    HW194376   9.697   5.966   0.760
27439SOL    HW294377   9.809   6.046   0.671
27440SOL     OW94378   9.731   6.653   1.389
27440SOL    HW194379   9.830   6.637   1.386
27440SOL    HW294380   9.712   6.741   1.433
27441SOL     OW94381   9.936   7.228   0.191
27441SOL    HW194382   9.864   7.284   0.151
27441SOL    HW294383   9.900   7.179   0.271
27442SOL     OW94384   9.638   7.303   1.447
27442SOL    HW194385   9.701   7.380   1.452
27442SOL    HW294386   9.546   7.336   1.428
27443SOL     OW94387   9.389   6.085   1.815
27443SOL    HW194388   9.387   5.986   1.801
27443SOL    HW294389   9.438   6.107   1.899
27444SOL     OW94390   9.241   6.470   0.534
27444SOL    HW194391   9.258   6.569   0.537
27444SOL    HW294392   9.147   6.452   0.563
27445SOL     OW94393   9.764   6.158   1.580
27445SOL    HW194394   9.666   6.146   1.562
27445SOL    HW294395   9.804   6.213   1.507
27446SOL     OW94396   9.981   6.063   1.046
27446SOL    HW194397   0.070   6.082   1.089
27446SOL    HW294398   9.911   6.122   1.086
27447SOL     OW94399   9.380   6.279   1.129
27447SOL    HW194400   9.420   6.293   1.220
27447SOL    HW294401   9.450   6.246   1.066
27448SOL     OW94402   9.640   6.869   1.528
27448SOL    HW194403   9.651   6.965   1.556
27448SOL    HW294404   9.551   6.835   1.560
27449SOL     OW94405   9.613   5.768   1.857
27449SOL    HW194406   9.526   5.779   1.808
27449SOL    HW294407   9.673   5.845   1.835
27450SOL     OW94408   9.820   6.993   2.238
27450SOL    HW194409   9.765   6.989   2.322
27450SOL    HW294410   9.910   6.953   2.255
27451SOL     OW94411   9.784   5.593   1.995
27451SOL    HW194412   9.876   5.629   2.007
27451SOL    HW294413   9.730   5.657   1.941
27452SOL     OW94414   9.639   6.692   2.469
27452SOL    HW194415   9.616   6.664   2.562
27452SOL    HW294416   9.674   6.614   2.417
27453SOL     OW94417   9.671   6.906   2.014
27453SOL    HW194418   9.727   6.926   1.934
27453SOL    HW294419   9.716   6.942   2.096
27454SOL     OW94420   9.775   5.872   2.892
27454SOL    HW194421   9.851   5.937   2.891
27454SOL    HW294422   9.808   5.782   2.863
27455SOL     OW94423   9.520   6.281   2.340
27455SOL    HW194424   9.562   6.306   2.427
27455SOL    HW294425   9.422   6.266   2.354
27456SOL     OW94426   9.369   6.510   3.442
27456SOL    HW194427   9.466   6.528   3.461
27456SOL    HW294428   9.323   6.485   3.527
27457SOL     OW94429   9.772   6.199   1.993
27457SOL    HW194430   9.758   6.286   1.946
27457SOL    HW294431   9.858   6.203   2.044
27458SOL     OW94432   9.786   7.124   2.669
27458SOL    HW194433   9.884   7.142   2.655
27458SOL    HW294434   9.754   7.060   2.599
27459SOL     OW94435   9.484   6.800   2.266
27459SOL    HW194436   9.543   6.760   2.336
27459SOL    HW294437   9.444   6.727   2.210
27460SOL     OW94438   9.575   6.069   3.114
27460SOL    HW194439   9.573   5.970   3.101
27460SOL    HW294440   9.505   6.112   3.057
27461SOL     OW94441   9.622   5.773   2.316
27461SOL    HW194442   9.578   5.821   2.392
27461SOL    HW294443   9.588   5.808   2.229
27462SOL     OW94444   9.912   6.722   3.587
27462SOL    HW194445   9.861   6.803   3.614
27462SOL    HW294446   9.920   6.660   3.665
27463SOL     OW94447   9.270   6.243   2.446
27463SOL    HW194448   9.292   6.179   2.520
27463SOL    HW294449   9.245   6.331   2.485
27464SOL     OW94450   9.547   5.701   2.678
27464SOL    HW194451   9.617   5.720   2.747
27464SOL    HW294452   9.539   5.602   2.665
27465SOL     OW94453   9.591   5.791   3.085
27465SOL    HW194454   9.577   5.692   3.087
27465SOL    HW294455   9.662   5.813   3.019
27466SOL     OW94456   9.410   7.056   2.206
27466SOL    HW194457   9.445   6.962   2.211
27466SOL    HW294458   9.474   7.112   2.155
27467SOL     OW94459   9.423   7.073   2.482
27467SOL    HW194460   9.334   7.097   2.519
27467SOL    HW294461   9.419   7.073   2.382
27468SOL     OW94462   9.713   6.441   1.887
27468SOL    HW194463   9.690   6.475   1.796
27468SOL    HW294464   9.722   6.518   1.950
27469SOL     OW94465   9.317   6.338   2.071
27469SOL    HW194466   9.393   6.272   2.070
27469SOL    HW294467   9.239   6.298   2.120
27470SOL     OW94468   0.014   7.284   2.810
27470SOL    HW194469   0.106   7.245   2.816
27470SOL    HW294470   9.954   7.239   2.876
27471SOL     OW94471   9.564   6.179   3.363
27471SOL    HW194472   9.561   6.125   3.279
27471SOL    HW294473   9.494   6.146   3.427
27472SOL     OW94474   9.407   5.832   3.293
27472SOL    HW194475   9.478   5.819   3.224
27472SOL    HW294476   9.317   5.819   3.251
27473SOL     OW94477   9.560   6.619   2.726
27473SOL    HW194478   9.470   6.660   2.720
27473SOL    HW294479   9.586   6.609   2.823
27474SOL     OW94480   9.307   5.881   2.291
27474SOL    HW194481   9.366   5.880   2.210
27474SOL    HW294482   9.361   5.897   2.373
27475SOL     OW94483   9.952   6.352   3.244
27475SOL    HW194484   9.930   6.444   3.276
27475SOL    HW294485   0.049   6.346   3.223
27476SOL     OW94486   9.274   7.345   3.250
27476SOL    HW194487   9.228   7.434   3.253
27476SOL    HW294488   9.274   7.305   3.341
27477SOL     OW94489   9.584   6.052   2.780
27477SOL    HW194490   9.640   6.084   2.703
27477SOL    HW294491   9.637   5.987   2.835
27478SOL     OW94492   9.542   7.289   2.109
27478SOL    HW194493   9.626   7.325   2.067
27478SOL    HW294494   9.541   7.314   2.206
27479SOL     OW94495   9.298   6.728   2.781
27479SOL    HW194496   9.208   6.726   2.737
27479SOL    HW294497   9.299   6.664   2.858
27480SOL     OW94498   9.229   6.704   2.371
27480SOL    HW194499   9.298   6.776   2.382
27480SOL    HW294500   9.239   6.661   2.281
27481SOL     OW94501   9.792   6.961   3.650
27481SOL    HW194502   9.736   7.010   3.584
27481SOL    HW294503   9.876   7.012   3.667
27482SOL     OW94504   9.618   6.593   3.511
27482SOL    HW194505   9.659   6.601   3.420
27482SOL    HW294506   9.598   6.684   3.547
27483SOL     OW94507   9.360   6.934   2.955
27483SOL    HW194508   9.343   6.869   2.881
27483SOL    HW294509   9.285   6.932   3.020
27484SOL     OW94510   0.015   6.956   3.253
27484SOL    HW194511   0.008   7.055   3.242
27484SOL    HW294512   9.969   6.911   3.176
27485SOL     OW94513   9.373   5.813   3.561
27485SOL    HW194514   9.386   5.814   3.462
27485SOL    HW294515   9.278   5.791   3.582
27486SOL     OW94516   9.279   7.224   3.498
27486SOL    HW194517   9.361   7.245   3.552
27486SOL    HW294518   9.198   7.234   3.556
27487SOL     OW94519   9.472   5.903   2.511
27487SOL    HW194520   9.422   5.972   2.563
27487SOL    HW294521   9.499   5.828   2.572
27488SOL     OW94522   9.527   6.149   2.093
27488SOL    HW194523   9.616   6.166   2.050
27488SOL    HW294524   9.527   6.187   2.186
27489SOL     OW94525   9.632   7.349   2.631
27489SOL    HW194526   9.601   7.348   2.536
27489SOL    HW294527   9.678   7.262   2.651
27490SOL     OW94528   9.617   6.884   3.058
27490SOL    HW194529   9.608   6.898   3.156
27490SOL    HW294530   9.533   6.911   3.012
27491SOL     OW94531   9.577   6.363   2.603
27491SOL    HW194532   9.601   6.448   2.650
27491SOL    HW294533   9.649   6.295   2.617
27492SOL     OW94534   9.494   5.874   2.086
27492SOL    HW194535   9.544   5.833   2.009
27492SOL    HW294536   9.507   5.973   2.086
27493SOL     OW94537   9.334   6.086   2.666
27493SOL    HW194538   9.259   6.129   2.717
27493SOL    HW294539   9.415   6.081   2.725
27494SOL     OW94540   9.754   6.646   2.070
27494SOL    HW194541   9.851   6.668   2.072
27494SOL    HW294542   9.700   6.729   2.056
27495SOL     OW94543   0.001   6.210   2.148
27495SOL    HW194544   0.086   6.164   2.122
27495SOL    HW294545   9.980   6.189   2.244
27496SOL     OW94546   9.333   5.615   2.026
27496SOL    HW194547   9.408   5.550   2.036
27496SOL    HW294548   9.366   5.707   2.046
27497SOL     OW94549   9.579   6.610   3.006
27497SOL    HW194550   9.606   6.553   3.083
27497SOL    HW294551   9.597   6.706   3.026
27498SOL     OW94552   9.809   6.209   3.044
27498SOL    HW194553   9.844   6.267   3.117
27498SOL    HW294554   9.723   6.166   3.073
27499SOL     OW94555   9.970   6.609   3.348
27499SOL    HW194556   0.069   6.600   3.356
27499SOL    HW294557   9.933   6.648   3.432
27500SOL     OW94558   9.852   5.623   2.817
27500SOL    HW194559   9.842   5.562   2.738
27500SOL    HW294560   9.916   5.581   2.882
27501SOL     OW94561   9.504   7.336   3.098
27501SOL    HW194562   9.479   7.289   3.013
27501SOL    HW294563   9.426   7.337   3.160
27502SOL     OW94564   9.310   6.545   2.981
27502SOL    HW194565   9.405   6.560   3.008
27502SOL    HW294566   9.306   6.473   2.911
27503SOL     OW94567   9.519   5.516   2.309
27503SOL    HW194568   9.575   5.598   2.324
27503SOL    HW294569   9.425   5.535   2.336
27504SOL     OW94570   0.020   6.185   3.619
27504SOL    HW194571   9.951   6.182   3.546
27504SOL    HW294572   0.104   6.143   3.586
27505SOL     OW94573   9.337   6.612   2.116
27505SOL    HW194574   9.343   6.513   2.102
27505SOL    HW294575   9.378   6.659   2.037
27506SOL     OW94576   9.475   6.393   3.208
27506SOL    HW194577   9.521   6.322   3.261
27506SOL    HW294578   9.425   6.453   3.269
27507SOL     OW94579   0.036   7.115   1.846
27507SOL    HW194580   9.996   7.145   1.933
27507SOL    HW294581   0.094   7.036   1.862
27508SOL     OW94582   9.822   7.137   2.944
27508SOL    HW194583   9.790   7.128   2.849
27508SOL    HW294584   9.788   7.060   2.998
27509SOL     OW94585   9.346   6.379   2.761
27509SOL    HW194586   9.431   6.361   2.710
27509SOL    HW294587   9.278   6.417   2.699
27510SOL     OW94588   9.253   6.446   3.672
27510SOL    HW194589   9.153   6.437   3.666
27510SOL    HW294590   9.286   6.398   3.753
27511SOL     OW94591   9.715   6.017   3.629
27511SOL    HW194592   9.751   6.047   3.541
27511SOL    HW294593   9.739   6.083   3.700
27512SOL     OW94594   9.712   6.488   2.294
27512SOL    HW194595   9.720   6.537   2.208
27512SOL    HW294596   9.642   6.416   2.285
27513SOL     OW94597   9.268   5.615   2.356
27513SOL    HW194598   9.175   5.586   2.332
27513SOL    HW294599   9.279   5.712   2.334
27514SOL     OW94600   9.640   7.114   3.486
27514SOL    HW194601   9.586   7.173   3.546
27514SOL    HW294602   9.670   7.166   3.406
27515SOL     OW94603   9.676   6.965   2.475
27515SOL    HW194604   9.669   6.866   2.477
27515SOL    HW294605   9.585   7.006   2.483
27516SOL     OW94606   9.502   7.292   3.649
27516SOL    HW194607   9.536   7.383   3.625
27516SOL    HW294608   9.505   7.279   3.748
27517SOL     OW94609   9.372   6.795   3.477
27517SOL    HW194610   9.347   6.701   3.456
27517SOL    HW294611   9.300   6.857   3.446
27518SOL     OW94612   9.399   7.199   2.880
27518SOL    HW194613   9.390   7.101   2.901
27518SOL    HW294614   9.435   7.209   2.787
27519SOL     OW94615   9.724   6.125   2.552
27519SOL    HW194616   9.670   6.059   2.501
27519SOL    HW294617   9.811   6.141   2.505
27520SOL     OW94618   9.714   6.654   3.264
27520SOL    HW194619   9.814   6.648   3.273
27520SOL    HW294620   9.685   6.748   3.279
27521SOL     OW94621   9.454   6.758   1.921
27521SOL    HW194622   9.437   6.770   1.823
27521SOL    HW294623   9.524   6.823   1.951
27522SOL     OW94624   9.910   7.190   2.070
27522SOL    HW194625   9.846   7.266   2.058
27522SOL    HW294626   9.874   7.126   2.137
27523SOL     OW94627   9.711   7.246   3.265
27523SOL    HW194628   9.804   7.238   3.229
27523SOL    HW294629   9.651   7.280   3.193
27524SOL     OW94630   9.403   6.086   3.576
27524SOL    HW194631   9.393   5.987   3.571
27524SOL    HW294632   9.477   6.109   3.639
27525SOL     OW94633   9.199   6.485   2.548
27525SOL    HW194634   9.229   6.565   2.494
27525SOL    HW294635   9.099   6.485   2.552
27526SOL     OW94636   9.829   6.184   3.423
27526SOL    HW194637   9.731   6.190   3.405
27526SOL    HW294638   9.878   6.240   3.357
27527SOL     OW94639   9.983   6.077   2.889
27527SOL    HW194640   0.069   6.093   2.938
27527SOL    HW294641   9.909   6.126   2.936
27528SOL     OW94642   9.895   6.834   3.035
27528SOL    HW194643   9.795   6.841   3.037
27528SOL    HW294644   9.921   6.742   3.007
27529SOL     OW94645   9.381   6.234   2.999
27529SOL    HW194646   9.410   6.299   3.070
27529SOL    HW294647   9.378   6.281   2.911
27530SOL     OW94648   9.589   6.891   3.333
27530SOL    HW194649   9.617   6.974   3.380
27530SOL    HW294650   9.507   6.854   3.377
27531SOL     OW94651   9.600   5.783   3.706
27531SOL    HW194652   9.513   5.783   3.656
27531SOL    HW294653   9.656   5.860   3.676
27532SOL     OW94654   9.818   7.008   4.100
27532SOL    HW194655   9.763   7.015   4.183
27532SOL    HW294656   9.897   6.948   4.118
27533SOL     OW94657   9.778   5.597   3.824
27533SOL    HW194658   9.874   5.623   3.817
27533SOL    HW294659   9.721   5.668   3.783
27534SOL     OW94660   9.657   6.725   4.357
27534SOL    HW194661   9.605   6.712   4.442
27534SOL    HW294662   9.738   6.667   4.358
27535SOL     OW94663   9.649   6.943   3.881
27535SOL    HW194664   9.703   6.956   3.798
27535SOL    HW294665   9.703   6.973   3.960
27536SOL     OW94666   9.778   5.880   4.737
27536SOL    HW194667   9.851   5.949   4.740
27536SOL    HW294668   9.817   5.791   4.713
27537SOL     OW94669   9.574   6.326   4.180
27537SOL    HW194670   9.615   6.350   4.268
27537SOL    HW294671   9.477   6.305   4.193
27538SOL     OW94672   9.419   6.548   5.304
27538SOL    HW194673   9.507   6.582   5.339
27538SOL    HW294674   9.367   6.508   5.379
27539SOL     OW94675   9.796   6.227   3.786
27539SOL    HW194676   9.758   6.319   3.773
27539SOL    HW294677   9.882   6.220   3.737
27540SOL     OW94678   9.813   7.127   4.534
27540SOL    HW194679   9.910   7.101   4.538
27540SOL    HW294680   9.767   7.069   4.467
27541SOL     OW94681   9.493   6.794   4.139
27541SOL    HW194682   9.556   6.763   4.210
27541SOL    HW294683   9.475   6.719   4.076
27542SOL     OW94684   9.546   6.064   4.939
27542SOL    HW194685   9.554   5.966   4.926
27542SOL    HW294686   9.488   6.103   4.868
27543SOL     OW94687   9.603   5.779   4.165
27543SOL    HW194688   9.552   5.819   4.241
27543SOL    HW294689   9.579   5.827   4.081
27544SOL     OW94690   9.950   6.663   5.407
27544SOL    HW194691   9.852   6.651   5.418
27544SOL    HW294692   9.998   6.588   5.451
27545SOL     OW94693   9.321   6.264   4.277
27545SOL    HW194694   9.335   6.197   4.350
27545SOL    HW294695   9.285   6.349   4.316
27546SOL     OW94696   9.545   5.700   4.534
27546SOL    HW194697   9.615   5.732   4.598
27546SOL    HW294698   9.554   5.602   4.520
27547SOL     OW94699   9.590   5.791   4.923
27547SOL    HW194700   9.578   5.692   4.926
27547SOL    HW294701   9.664   5.814   4.860
27548SOL     OW94702   9.415   7.047   4.058
27548SOL    HW194703   9.442   6.954   4.080
27548SOL    HW294704   9.474   7.084   3.986
27549SOL     OW94705   9.416   7.098   4.332
27549SOL    HW194706   9.324   7.124   4.362
27549SOL    HW294707   9.417   7.092   4.232
27550SOL     OW94708   9.698   6.472   3.744
27550SOL    HW194709   9.665   6.504   3.655
27550SOL    HW294710   9.700   6.549   3.809
27551SOL     OW94711   9.340   6.334   3.905
27551SOL    HW194712   9.421   6.276   3.909
27551SOL    HW294713   9.266   6.292   3.959
27552SOL     OW94714   0.047   7.355   4.708
27552SOL    HW194715   0.140   7.321   4.694
27552SOL    HW294716   9.995   7.288   4.762
27553SOL     OW94717   9.518   6.174   5.186
27553SOL    HW194718   9.519   6.119   5.102
27553SOL    HW294719   9.461   6.129   5.255
27554SOL     OW94720   9.412   5.825   5.137
27554SOL    HW194721   9.481   5.816   5.066
27554SOL    HW294722   9.321   5.817   5.096
27555SOL     OW94723   9.540   6.683   4.604
27555SOL    HW194724   9.445   6.710   4.590
27555SOL    HW294725   9.551   6.646   4.696
27556SOL     OW94726   9.295   5.883   4.126
27556SOL    HW194727   9.361   5.897   4.052
27556SOL    HW294728   9.343   5.888   4.214
27557SOL     OW94729   9.946   6.268   5.086
27557SOL    HW194730   9.963   6.366   5.098
27557SOL    HW294731   0.031   6.218   5.097
27558SOL     OW94732   9.263   7.358   5.086
27558SOL    HW194733   9.218   7.448   5.089
27558SOL    HW294734   9.258   7.316   5.177
27559SOL     OW94735   9.595   6.056   4.607
27559SOL    HW194736   9.654   6.092   4.535
27559SOL    HW294737   9.648   5.994   4.665
27560SOL     OW94738   9.535   7.312   3.929
27560SOL    HW194739   9.620   7.355   3.899
27560SOL    HW294740   9.526   7.320   4.028
27561SOL     OW94741   9.267   6.733   4.639
27561SOL    HW194742   9.180   6.729   4.590
27561SOL    HW294743   9.269   6.662   4.709
27562SOL     OW94744   9.230   6.704   4.197
27562SOL    HW194745   9.306   6.768   4.212
27562SOL    HW294746   9.240   6.662   4.107
27563SOL     OW94747   9.720   6.954   5.464
27563SOL    HW194748   9.674   7.013   5.397
27563SOL    HW294749   9.817   6.979   5.470
27564SOL     OW94750   9.668   6.666   5.388
27564SOL    HW194751   9.702   6.669   5.294
27564SOL    HW294752   9.664   6.759   5.425
27565SOL     OW94753   9.341   6.944   4.800
27565SOL    HW194754   9.318   6.875   4.732
27565SOL    HW294755   9.270   6.946   4.871
27566SOL     OW94756   9.987   7.013   5.153
27566SOL    HW194757   0.024   7.096   5.112
27566SOL    HW294758   9.947   6.956   5.081
27567SOL     OW94759   9.391   5.774   5.401
27567SOL    HW194760   9.399   5.786   5.302
27567SOL    HW294761   9.295   5.762   5.426
27568SOL     OW94762   9.263   7.236   5.335
27568SOL    HW194763   9.349   7.259   5.382
27568SOL    HW294764   9.187   7.244   5.399
27569SOL     OW94765   9.436   5.881   4.360
27569SOL    HW194766   9.402   5.960   4.411
27569SOL    HW294767   9.473   5.813   4.424
27570SOL     OW94768   9.573   6.176   3.945
27570SOL    HW194769   9.655   6.192   3.891
27570SOL    HW294770   9.581   6.223   4.033
27571SOL     OW94771   9.645   7.337   4.442
27571SOL    HW194772   9.599   7.330   4.354
27571SOL    HW294773   9.689   7.250   4.464
27572SOL     OW94774   9.594   6.871   4.899
27572SOL    HW194775   9.587   6.894   4.996
27572SOL    HW294776   9.514   6.906   4.851
27573SOL     OW94777   9.655   6.374   4.439
27573SOL    HW194778   9.714   6.435   4.491
27573SOL    HW294779   9.697   6.283   4.434
27574SOL     OW94780   9.499   5.908   3.939
27574SOL    HW194781   9.537   5.862   3.859
27574SOL    HW294782   9.523   6.005   3.937
27575SOL     OW94783   9.343   6.098   4.498
27575SOL    HW194784   9.274   6.149   4.548
27575SOL    HW294785   9.428   6.095   4.552
27576SOL     OW94786   9.740   6.681   3.919
27576SOL    HW194787   9.837   6.703   3.907
27576SOL    HW294788   9.686   6.765   3.914
27577SOL     OW94789   0.075   6.069   3.871
27577SOL    HW194790   0.061   6.110   3.781
27577SOL    HW294791   0.005   6.103   3.934
27578SOL     OW94792   9.298   5.601   3.865
27578SOL    HW194793   9.378   5.542   3.874
27578SOL    HW294794   9.323   5.695   3.889
27579SOL     OW94795   9.555   6.601   4.865
27579SOL    HW194796   9.561   6.540   4.944
27579SOL    HW294797   9.583   6.693   4.892
27580SOL     OW94798   9.776   6.210   4.877
27580SOL    HW194799   9.829   6.235   4.958
27580SOL    HW294800   9.693   6.162   4.906
27581SOL     OW94801   9.989   6.532   5.125
27581SOL    HW194802   0.072   6.550   5.178
27581SOL    HW294803   9.917   6.594   5.155
27582SOL     OW94804   9.873   5.635   4.679
27582SOL    HW194805   9.863   5.574   4.600
27582SOL    HW294806   9.934   5.593   4.746
27583SOL     OW94807   9.480   7.363   4.920
27583SOL    HW194808   9.454   7.312   4.839
27583SOL    HW294809   9.405   7.361   4.986
27584SOL     OW94810   9.286   6.547   4.837
27584SOL    HW194811   9.383   6.567   4.851
27584SOL    HW294812   9.275   6.450   4.817
27585SOL     OW94813   9.492   5.528   4.148
27585SOL    HW194814   9.549   5.609   4.165
27585SOL    HW294815   9.398   5.547   4.174
27586SOL     OW94816   9.974   6.236   5.456
27586SOL    HW194817   9.897   6.214   5.396
27586SOL    HW294818   0.050   6.174   5.436
27587SOL     OW94819   9.343   6.613   3.947
27587SOL    HW194820   9.356   6.515   3.931
27587SOL    HW294821   9.383   6.665   3.872
27588SOL     OW94822   9.490   6.418   5.066
27588SOL    HW194823   9.509   6.328   5.105
27588SOL    HW294824   9.461   6.480   5.139
27589SOL     OW94825   0.014   7.102   3.714
27589SOL    HW194826   9.988   7.148   3.799
27589SOL    HW294827   0.083   7.032   3.733
27590SOL     OW94828   9.869   7.165   4.816
27590SOL    HW194829   9.814   7.161   4.732
27590SOL    HW294830   9.809   7.181   4.894
27591SOL     OW94831   9.406   6.391   4.575
27591SOL    HW194832   9.495   6.388   4.528
27591SOL    HW294833   9.339   6.437   4.517
27592SOL     OW94834   9.263   6.445   5.497
27592SOL    HW194835   9.163   6.451   5.490
27592SOL    HW294836   9.288   6.393   5.579
27593SOL     OW94837   9.673   6.063   5.502
27593SOL    HW194838   9.715   6.096   5.417
27593SOL    HW294839   9.704   6.119   5.579
27594SOL     OW94840   9.801   6.466   4.078
27594SOL    HW194841   9.767   6.542   4.023
27594SOL    HW294842   9.725   6.409   4.108
27595SOL     OW94843   9.239   5.622   4.196
27595SOL    HW194844   9.142   5.600   4.186
27595SOL    HW294845   9.255   5.717   4.171
27596SOL     OW94846   9.625   7.143   5.279
27596SOL    HW194847   9.582   7.214   5.335
27596SOL    HW294848   9.661   7.184   5.195
27597SOL     OW94849   9.671   6.999   4.339
27597SOL    HW194850   9.667   6.900   4.346
27597SOL    HW294851   9.579   7.037   4.342
27598SOL     OW94852   9.496   7.325   5.459
27598SOL    HW194853   9.493   7.424   5.446
27598SOL    HW294854   9.512   7.306   5.556
27599SOL     OW94855   9.356   6.821   5.334
27599SOL    HW194856   9.346   6.725   5.310
27599SOL    HW294857   9.278   6.873   5.300
27600SOL     OW94858   9.381   7.204   4.715
27600SOL    HW194859   9.373   7.108   4.742
27600SOL    HW294860   9.409   7.209   4.619
27601SOL     OW94861   9.761   6.125   4.388
27601SOL    HW194862   9.736   6.041   4.339
27601SOL    HW294863   9.848   6.160   4.353
27602SOL     OW94864   9.753   6.714   5.135
27602SOL    HW194865   9.819   6.751   5.069
27602SOL    HW294866   9.678   6.779   5.147
27603SOL     OW94867   9.455   6.773   3.753
27603SOL    HW194868   9.421   6.796   3.662
27603SOL    HW294869   9.509   6.848   3.789
27604SOL     OW94870   9.914   7.217   3.940
27604SOL    HW194871   9.841   7.281   3.918
27604SOL    HW294872   9.880   7.149   4.005
27605SOL     OW94873   9.706   7.254   5.032
27605SOL    HW194874   9.770   7.328   5.054
27605SOL    HW294875   9.624   7.292   4.989
27606SOL     OW94876   9.405   6.056   5.414
27606SOL    HW194877   9.392   5.957   5.410
27606SOL    HW294878   9.492   6.076   5.459
27607SOL     OW94879   9.217   6.494   4.381
27607SOL    HW194880   9.233   6.573   4.323
27607SOL    HW294881   9.119   6.483   4.396
27608SOL     OW94882   9.774   6.178   5.275
27608SOL    HW194883   9.680   6.185   5.243
27608SOL    HW294884   9.836   6.211   5.203
27609SOL     OW94885   9.976   6.089   4.744
27609SOL    HW194886   0.058   6.128   4.784
27609SOL    HW294887   9.895   6.136   4.779
27610SOL     OW94888   9.905   6.843   4.952
27610SOL    HW194889   9.840   6.860   4.878
27610SOL    HW294890   9.995   6.823   4.913
27611SOL     OW94891   9.384   6.275   4.823
27611SOL    HW194892   9.436   6.323   4.893
27611SOL    HW294893   9.406   6.312   4.733
27612SOL     OW94894   9.559   6.903   5.170
27612SOL    HW194895   9.587   6.993   5.201
27612SOL    HW294896   9.483   6.871   5.227
27613SOL     OW94897   9.606   5.807   5.564
27613SOL    HW194898   9.527   5.789   5.504
27613SOL    HW294899   9.647   5.895   5.539
27614SOL     OW94900   9.850   7.040   5.913
27614SOL    HW194901   9.811   7.046   6.005
27614SOL    HW294902   9.943   7.003   5.919
27615SOL     OW94903   9.773   5.607   5.661
27615SOL    HW194904   9.870   5.632   5.652
27615SOL    HW294905   9.717   5.682   5.627
27616SOL     OW94906   9.669   6.752   6.187
27616SOL    HW194907   9.636   6.718   6.275
27616SOL    HW294908   9.699   6.675   6.131
27617SOL     OW94909   9.668   6.924   5.734
27617SOL    HW194910   9.687   6.942   5.637
27617SOL    HW294911   9.731   6.977   5.790
27618SOL     OW94912   9.798   5.871   6.617
27618SOL    HW194913   9.876   5.934   6.617
27618SOL    HW294914   9.828   5.781   6.585
27619SOL     OW94915   9.504   6.372   6.030
27619SOL    HW194916   9.530   6.355   6.125
27619SOL    HW294917   9.414   6.415   6.028
27620SOL     OW94918   9.347   6.529   7.145
27620SOL    HW194919   9.437   6.537   7.188
27620SOL    HW294920   9.284   6.483   7.207
27621SOL     OW94921   9.754   6.234   5.698
27621SOL    HW194922   9.745   6.323   5.654
27621SOL    HW294923   9.845   6.226   5.740
27622SOL     OW94924   9.520   6.876   5.979
27622SOL    HW194925   9.571   6.834   6.054
27622SOL    HW294926   9.573   6.870   5.894
27623SOL     OW94927   9.575   6.058   6.834
27623SOL    HW194928   9.574   5.960   6.815
27623SOL    HW294929   9.513   6.105   6.771
27624SOL     OW94930   9.600   5.791   6.014
27624SOL    HW194931   9.550   5.834   6.089
27624SOL    HW294932   9.572   5.833   5.927
27625SOL     OW94933   9.913   6.731   7.236
27625SOL    HW194934   9.860   6.803   7.282
27625SOL    HW294935   9.954   6.671   7.305
27626SOL     OW94936   9.258   6.218   6.152
27626SOL    HW194937   9.292   6.170   6.233
27626SOL    HW294938   9.273   6.316   6.162
27627SOL     OW94939   9.477   5.703   6.384
27627SOL    HW194940   9.537   5.740   6.455
27627SOL    HW294941   9.505   5.610   6.361
27628SOL     OW94942   9.591   5.785   6.787
27628SOL    HW194943   9.581   5.685   6.789
27628SOL    HW294944   9.670   5.810   6.731
27629SOL     OW94945   9.386   7.095   5.874
27629SOL    HW194946   9.433   7.016   5.913
27629SOL    HW294947   9.449   7.146   5.815
27630SOL     OW94948   9.513   7.160   6.170
27630SOL    HW194949   9.430   7.106   6.158
27630SOL    HW294950   9.511   7.238   6.107
27631SOL     OW94951   9.715   6.483   5.597
27631SOL    HW194952   9.684   6.532   5.516
27631SOL    HW294953   9.729   6.548   5.672
27632SOL     OW94954   9.315   6.327   5.738
27632SOL    HW194955   9.398   6.273   5.753
27632SOL    HW294956   9.240   6.289   5.793
27633SOL     OW94957   9.533   6.191   7.076
27633SOL    HW194958   9.537   6.120   7.006
27633SOL    HW294959   9.493   6.152   7.160
27634SOL     OW94960   9.390   5.818   6.990
27634SOL    HW194961   9.462   5.808   6.921
27634SOL    HW294962   9.301   5.799   6.949
27635SOL     OW94963   9.576   6.627   6.432
27635SOL    HW194964   9.484   6.666   6.430
27635SOL    HW294965   9.598   6.600   6.526
27636SOL     OW94966   9.286   5.876   5.979
27636SOL    HW194967   9.349   5.892   5.903
27636SOL    HW294968   9.334   5.895   6.065
27637SOL     OW94969   9.953   6.302   6.953
27637SOL    HW194970   9.961   6.395   6.988
27637SOL    HW294971   0.040   6.254   6.966
27638SOL     OW94972   9.293   7.404   6.950
27638SOL    HW194973   9.244   7.491   6.946
27638SOL    HW294974   9.282   7.364   7.041
27639SOL     OW94975   9.610   6.009   6.468
27639SOL    HW194976   9.662   6.054   6.395
27639SOL    HW294977   9.674   5.964   6.531
27640SOL     OW94978   9.539   7.326   5.748
27640SOL    HW194979   9.626   7.370   5.725
27640SOL    HW294980   9.522   7.335   5.846
27641SOL     OW94981   9.316   6.716   6.492
27641SOL    HW194982   9.232   6.720   6.438
27641SOL    HW294983   9.301   6.659   6.573
27642SOL     OW94984   9.273   6.744   5.999
27642SOL    HW194985   9.352   6.805   6.004
27642SOL    HW294986   9.274   6.696   5.911
27643SOL     OW94987   9.789   6.969   7.323
27643SOL    HW194988   9.732   7.021   7.260
27643SOL    HW294989   9.869   7.024   7.349
27644SOL     OW94990   9.598   6.586   7.240
27644SOL    HW194991   9.642   6.582   7.150
27644SOL    HW294992   9.582   6.682   7.265
27645SOL     OW94993   9.376   6.940   6.650
27645SOL    HW194994   9.357   6.868   6.583
27645SOL    HW294995   9.297   6.951   6.710
27646SOL     OW94996   9.955   7.065   6.936
27646SOL    HW194997   9.875   7.124   6.938
27646SOL    HW294998   9.938   6.987   6.875
27647SOL     OW94999   9.371   5.828   7.260
27647SOL    HW195000   9.383   5.826   7.160
27647SOL    HW295001   9.279   5.797   7.282
27648SOL     OW95002   9.292   7.273   7.196
27648SOL    HW195003   9.375   7.292   7.248
27648SOL    HW295004   9.213   7.274   7.257
27649SOL     OW95005   9.437   5.902   6.205
27649SOL    HW195006   9.406   5.981   6.260
27649SOL    HW295007   9.452   5.824   6.266
27650SOL     OW95008   9.528   6.175   5.832
27650SOL    HW195009   9.613   6.194   5.784
27650SOL    HW295010   9.519   6.235   5.911
27651SOL     OW95011   9.587   7.288   6.402
27651SOL    HW195012   9.559   7.244   6.316
27651SOL    HW295013   9.676   7.253   6.430
27652SOL     OW95014   9.615   6.853   6.766
27652SOL    HW195015   9.606   6.873   6.864
27652SOL    HW295016   9.537   6.893   6.717
27653SOL     OW95017   9.576   6.360   6.294
27653SOL    HW195018   9.622   6.437   6.338
27653SOL    HW295019   9.637   6.281   6.291
27654SOL     OW95020   9.478   5.906   5.789
27654SOL    HW195021   9.528   5.872   5.709
27654SOL    HW295022   9.493   6.005   5.797
27655SOL     OW95023   9.368   6.100   6.382
27655SOL    HW195024   9.348   6.190   6.421
27655SOL    HW295025   9.449   6.062   6.427
27656SOL     OW95026   9.768   6.674   5.788
27656SOL    HW195027   9.866   6.688   5.784
27656SOL    HW295028   9.721   6.758   5.762
27657SOL     OW95029   9.992   6.216   5.840
27657SOL    HW195030   0.075   6.167   5.811
27657SOL    HW295031   9.970   6.191   5.934
27658SOL     OW95032   9.305   5.622   5.718
27658SOL    HW195033   9.384   5.560   5.723
27658SOL    HW295034   9.335   5.714   5.743
27659SOL     OW95035   9.575   6.582   6.715
27659SOL    HW195036   9.597   6.529   6.796
27659SOL    HW295037   9.592   6.679   6.733
27660SOL     OW95038   9.809   6.186   6.749
27660SOL    HW195039   9.853   6.233   6.825
27660SOL    HW295040   9.725   6.143   6.781
27661SOL     OW95041   9.983   6.571   7.028
27661SOL    HW195042   0.082   6.571   7.036
27661SOL    HW295043   9.944   6.624   7.103
27662SOL     OW95044   9.873   5.625   6.536
27662SOL    HW195045   9.843   5.560   6.466
27662SOL    HW295046   9.933   5.578   6.601
27663SOL     OW95047   9.522   7.367   6.807
27663SOL    HW195048   9.491   7.313   6.729
27663SOL    HW295049   9.445   7.383   6.869
27664SOL     OW95050   9.288   6.552   6.707
27664SOL    HW195051   9.385   6.537   6.723
27664SOL    HW295052   9.236   6.473   6.740
27665SOL     OW95053   9.509   5.533   5.989
27665SOL    HW195054   9.561   5.617   6.008
27665SOL    HW295055   9.415   5.545   6.020
27666SOL     OW95056   0.002   6.286   7.286
27666SOL    HW195057   9.918   6.246   7.248
27666SOL    HW295058   0.075   6.219   7.282
27667SOL     OW95059   9.309   6.608   5.767
27667SOL    HW195060   9.328   6.511   5.752
27667SOL    HW295061   9.360   6.663   5.701
27668SOL     OW95062   9.431   6.390   6.922
27668SOL    HW195063   9.479   6.318   6.974
27668SOL    HW295064   9.400   6.461   6.985
27669SOL     OW95065   9.967   7.073   5.512
27669SOL    HW195066   9.949   7.135   5.589
27669SOL    HW295067   0.034   7.004   5.540
27670SOL     OW95068   9.356   6.362   6.458
27670SOL    HW195069   9.432   6.371   6.394
27670SOL    HW295070   9.301   6.446   6.457
27671SOL     OW95071   9.759   5.993   7.351
27671SOL    HW195072   9.776   6.044   7.266
27671SOL    HW295073   9.760   6.057   7.428
27672SOL     OW95074   9.726   6.536   6.020
27672SOL    HW195075   9.739   6.581   5.931
27672SOL    HW295076   9.648   6.474   6.014
27673SOL     OW95077   9.253   5.612   6.047
27673SOL    HW195078   9.158   5.585   6.032
27673SOL    HW295079   9.263   5.709   6.024
27674SOL     OW95080   9.646   7.136   7.158
27674SOL    HW195081   9.601   7.202   7.218
27674SOL    HW295082   9.682   7.183   7.078
27675SOL     OW95083   9.756   7.030   6.176
27675SOL    HW195084   9.739   6.933   6.191
27675SOL    HW295085   9.669   7.080   6.177
27676SOL     OW95086   9.528   7.328   7.334
27676SOL    HW195087   9.544   7.427   7.336
27676SOL    HW295088   9.536   7.291   7.426
27677SOL     OW95089   9.368   6.817   7.165
27677SOL    HW195090   9.334   6.728   7.133
27677SOL    HW295091   9.306   6.889   7.132
27678SOL     OW95092   9.417   7.214   6.606
27678SOL    HW195093   9.410   7.114   6.611
27678SOL    HW295094   9.471   7.239   6.526
27679SOL     OW95095   9.717   6.125   6.236
27679SOL    HW195096   9.666   6.059   6.182
27679SOL    HW295097   9.805   6.142   6.192
27680SOL     OW95098   9.707   6.626   6.989
27680SOL    HW195099   9.805   6.610   6.983
27680SOL    HW295100   9.689   6.724   6.997
27681SOL     OW95101   9.441   6.778   5.600
27681SOL    HW195102   9.412   6.802   5.507
27681SOL    HW295103   9.504   6.847   5.634
27682SOL     OW95104   9.911   7.235   5.721
27682SOL    HW195105   9.846   7.311   5.713
27682SOL    HW295106   9.886   7.178   5.800
27683SOL     OW95107   9.745   7.257   6.931
27683SOL    HW195108   9.807   7.335   6.941
27683SOL    HW295109   9.662   7.286   6.883
27684SOL     OW95110   9.441   6.091   7.315
27684SOL    HW195111   9.412   5.996   7.302
27684SOL    HW295112   9.454   6.110   7.412
27685SOL     OW95113   9.266   6.498   6.125
27685SOL    HW195114   9.283   6.589   6.088
27685SOL    HW295115   9.172   6.491   6.156
27686SOL     OW95116   9.797   6.174   7.141
27686SOL    HW195117   9.699   6.188   7.124
27686SOL    HW295118   9.850   6.213   7.065
27687SOL     OW95119   0.003   6.084   6.592
27687SOL    HW195120   0.087   6.120   6.633
27687SOL    HW295121   9.924   6.125   6.638
27688SOL     OW95122   9.894   6.854   6.764
27688SOL    HW195123   9.794   6.856   6.755
27688SOL    HW295124   9.926   6.759   6.758
27689SOL     OW95125   9.409   6.230   6.696
27689SOL    HW195126   9.420   6.293   6.773
27689SOL    HW295127   9.400   6.282   6.611
27690SOL     OW95128   9.600   6.888   7.038
27690SOL    HW195129   9.624   6.977   7.075
27690SOL    HW295130   9.515   6.857   7.079
27691SOL     OW95131   9.608   5.767   7.382
27691SOL    HW195132   9.522   5.786   7.335
27691SOL    HW295133   9.671   5.845   7.369
27692SOL     OW95134   9.829   6.965   7.756
27692SOL    HW195135   9.790   6.974   7.848
27692SOL    HW295136   9.921   6.926   7.763
27693SOL     OW95137   9.799   5.588   7.482
27693SOL    HW195138   9.894   5.619   7.472
27693SOL    HW295139   9.737   5.657   7.445
27694SOL     OW95140   9.640   6.720   8.016
27694SOL    HW195141   9.615   6.686   8.107
27694SOL    HW295142   9.679   6.645   7.962
27695SOL     OW95143   9.651   6.896   7.545
27695SOL    HW195144   9.698   6.929   7.463
27695SOL    HW295145   9.698   6.932   7.627
27696SOL     OW95146   9.767   5.878   8.403
27696SOL    HW195147   9.842   5.944   8.407
27696SOL    HW295148   9.804   5.787   8.388
27697SOL     OW95149   9.454   6.289   7.846
27697SOL    HW195150   9.502   6.313   7.931
27697SOL    HW295151   9.358   6.271   7.866
27698SOL     OW95152   9.376   6.515   8.981
27698SOL    HW195153   9.472   6.525   9.004
27698SOL    HW295154   9.325   6.487   9.063
27699SOL     OW95155   9.757   6.198   7.538
27699SOL    HW195156   9.732   6.288   7.502
27699SOL    HW295157   9.845   6.205   7.586
27700SOL     OW95158   9.911   7.091   8.164
27700SOL    HW195159   0.003   7.090   8.124
27700SOL    HW295160   9.848   7.041   8.105
27701SOL     OW95161   9.473   6.822   7.821
27701SOL    HW195162   9.534   6.783   7.889
27701SOL    HW295163   9.457   6.755   7.748
27702SOL     OW95164   9.576   6.069   8.636
27702SOL    HW195165   9.570   5.970   8.624
27702SOL    HW295166   9.502   6.113   8.585
27703SOL     OW95167   9.653   5.804   7.861
27703SOL    HW195168   9.604   5.855   7.932
27703SOL    HW295169   9.614   5.826   7.772
27704SOL     OW95170   9.907   6.750   9.104
27704SOL    HW195171   9.849   6.820   9.144
27704SOL    HW295172   9.924   6.678   9.172
27705SOL     OW95173   9.211   6.271   7.972
27705SOL    HW195174   9.233   6.196   8.033
27705SOL    HW295175   9.208   6.357   8.023
27706SOL     OW95176   9.575   5.764   8.221
27706SOL    HW195177   9.637   5.801   8.290
27706SOL    HW295178   9.605   5.671   8.197
27707SOL     OW95179   9.598   5.786   8.607
27707SOL    HW195180   9.590   5.686   8.608
27707SOL    HW295181   9.665   5.814   8.539
27708SOL     OW95182   9.427   7.089   7.775
27708SOL    HW195183   9.445   6.991   7.778
27708SOL    HW295184   9.477   7.130   7.698
27709SOL     OW95185   9.521   7.214   8.002
27709SOL    HW195186   9.462   7.294   8.015
27709SOL    HW295187   9.492   7.163   7.921
27710SOL     OW95188   9.671   6.449   7.469
27710SOL    HW195189   9.645   6.481   7.378
27710SOL    HW295190   9.719   6.523   7.517
27711SOL     OW95191   9.466   6.483   7.655
27711SOL    HW195192   9.456   6.405   7.717
27711SOL    HW295193   9.530   6.459   7.582
27712SOL     OW95194   0.032   7.348   8.477
27712SOL    HW195195   0.121   7.320   8.442
27712SOL    HW295196   9.969   7.270   8.475
27713SOL     OW95197   9.567   6.183   8.885
27713SOL    HW195198   9.563   6.124   8.803
27713SOL    HW295199   9.505   6.147   8.955
27714SOL     OW95200   9.432   5.830   8.826
27714SOL    HW195201   9.497   5.813   8.752
27714SOL    HW295202   9.339   5.819   8.791
27715SOL     OW95203   9.560   6.618   8.261
27715SOL    HW195204   9.468   6.656   8.261
27715SOL    HW295205   9.589   6.599   8.355
27716SOL     OW95206   9.350   5.770   7.864
27716SOL    HW195207   9.387   5.790   7.773
27716SOL    HW295208   9.385   5.837   7.929
27717SOL     OW95209   9.946   6.376   8.767
27717SOL    HW195210   9.926   6.468   8.801
27717SOL    HW295211   0.045   6.367   8.751
27718SOL     OW95212   9.289   7.370   8.785
27718SOL    HW195213   9.244   7.459   8.786
27718SOL    HW295214   9.281   7.327   8.875
27719SOL     OW95215   9.568   6.087   8.309
27719SOL    HW195216   9.624   6.112   8.230
27719SOL    HW295217   9.620   6.024   8.368
27720SOL     OW95218   9.552   7.281   7.605
27720SOL    HW195219   9.645   7.243   7.596
27720SOL    HW295220   9.552   7.352   7.675
27721SOL     OW95221   9.301   6.732   8.324
27721SOL    HW195222   9.210   6.732   8.283
27721SOL    HW295223   9.302   6.670   8.403
27722SOL     OW95224   9.217   6.721   7.915
27722SOL    HW195225   9.296   6.782   7.924
27722SOL    HW295226   9.209   6.691   7.820
27723SOL     OW95227   9.777   6.983   9.186
27723SOL    HW195228   9.722   7.030   9.117
27723SOL    HW295229   9.862   7.033   9.202
27724SOL     OW95230   9.621   6.574   9.089
27724SOL    HW195231   9.657   6.609   9.002
27724SOL    HW295232   9.582   6.650   9.142
27725SOL     OW95233   9.362   6.940   8.495
27725SOL    HW195234   9.345   6.873   8.423
27725SOL    HW295235   9.289   6.936   8.563
27726SOL     OW95236   9.934   7.036   8.797
27726SOL    HW195237   9.867   7.111   8.793
27726SOL    HW295238   9.923   6.977   8.717
27727SOL     OW95239   9.418   5.805   9.094
27727SOL    HW195240   9.428   5.810   8.994
27727SOL    HW295241   9.324   5.781   9.117
27728SOL     OW95242   9.278   7.238   9.028
27728SOL    HW195243   9.360   7.261   9.080
27728SOL    HW295244   9.198   7.244   9.087
27729SOL     OW95245   9.486   5.941   8.041
27729SOL    HW195246   9.418   6.004   8.079
27729SOL    HW295247   9.514   5.876   8.111
27730SOL     OW95248   9.503   6.125   7.603
27730SOL    HW195249   9.597   6.148   7.579
27730SOL    HW295250   9.477   6.172   7.688
27731SOL     OW95251   9.767   7.322   8.105
27731SOL    HW195252   9.681   7.293   8.062
27731SOL    HW295253   9.817   7.241   8.135
27732SOL     OW95254   9.613   6.865   8.599
27732SOL    HW195255   9.605   6.889   8.696
27732SOL    HW295256   9.532   6.898   8.550
27733SOL     OW95257   9.554   6.376   8.095
27733SOL    HW195258   9.582   6.453   8.152
27733SOL    HW295259   9.621   6.302   8.104
27734SOL     OW95260   9.502   5.852   7.635
27734SOL    HW195261   9.537   5.809   7.551
27734SOL    HW295262   9.494   5.950   7.621
27735SOL     OW95263   9.316   6.107   8.189
27735SOL    HW195264   9.242   6.150   8.241
27735SOL    HW295265   9.399   6.105   8.245
27736SOL     OW95266   9.775   6.659   7.611
27736SOL    HW195267   9.870   6.689   7.619
27736SOL    HW295268   9.717   6.737   7.587
27737SOL     OW95269   9.994   6.222   7.681
27737SOL    HW195270   0.078   6.175   7.654
27737SOL    HW295271   9.968   6.194   7.774
27738SOL     OW95272   9.586   6.591   8.544
27738SOL    HW195273   9.589   6.530   8.623
27738SOL    HW295274   9.606   6.684   8.573
27739SOL     OW95275   9.809   6.215   8.575
27739SOL    HW195276   9.842   6.275   8.648
27739SOL    HW295277   9.724   6.171   8.604
27740SOL     OW95278   9.967   6.637   8.865
27740SOL    HW195279   0.066   6.635   8.864
27740SOL    HW295280   9.935   6.675   8.952
27741SOL     OW95281   9.841   5.624   8.359
27741SOL    HW195282   9.799   5.564   8.291
27741SOL    HW295283   9.906   5.573   8.414
27742SOL     OW95284   9.522   7.353   8.637
27742SOL    HW195285   9.495   7.302   8.555
27742SOL    HW295286   9.443   7.361   8.699
27743SOL     OW95287   9.309   6.560   8.533
27743SOL    HW195288   9.408   6.562   8.547
27743SOL    HW295289   9.286   6.483   8.473
27744SOL     OW95290   9.579   5.544   7.824
27744SOL    HW195291   9.614   5.636   7.838
27744SOL    HW295292   9.491   5.535   7.871
27745SOL     OW95293   0.038   6.242   9.123
27745SOL    HW195294   9.962   6.224   9.062
27745SOL    HW295295   0.117   6.186   9.097
27746SOL     OW95296   9.266   6.664   7.637
27746SOL    HW195297   9.331   6.588   7.643
27746SOL    HW295298   9.296   6.729   7.568
27747SOL     OW95299   9.489   6.406   8.744
27747SOL    HW195300   9.531   6.330   8.794
27747SOL    HW295301   9.440   6.465   8.808
27748SOL     OW95302   0.008   7.117   7.385
27748SOL    HW195303   0.020   7.189   7.454
27748SOL    HW295304   0.068   7.040   7.407
27749SOL     OW95305   9.889   7.124   8.435
27749SOL    HW195306   9.891   7.108   8.336
27749SOL    HW295307   9.873   7.037   8.482
27750SOL     OW95308   9.349   6.393   8.301
27750SOL    HW195309   9.425   6.366   8.241
27750SOL    HW295310   9.277   6.436   8.247
27751SOL     OW95311   9.253   6.440   9.204
27751SOL    HW195312   9.156   6.464   9.216
27751SOL    HW295313   9.289   6.405   9.290
27752SOL     OW95314   9.724   6.068   9.174
27752SOL    HW195315   9.768   6.107   9.094
27752SOL    HW295316   9.747   6.121   9.255
27753SOL     OW95317   9.721   6.519   7.841
27753SOL    HW195318   9.739   6.567   7.755
27753SOL    HW295319   9.641   6.459   7.829
27754SOL     OW95320   9.316   5.514   7.951
27754SOL    HW195321   9.282   5.460   7.874
27754SOL    HW295322   9.313   5.611   7.927
27755SOL     OW95323   9.644   7.141   9.005
27755SOL    HW195324   9.593   7.207   9.060
27755SOL    HW295325   9.684   7.187   8.926
27756SOL     OW95326   9.713   6.987   8.006
27756SOL    HW195327   9.681   6.893   8.017
27756SOL    HW295328   9.637   7.050   8.016
27757SOL     OW95329   9.505   7.327   9.162
27757SOL    HW195330   9.513   7.424   9.136
27757SOL    HW295331   9.521   7.318   9.260
27758SOL     OW95332   9.370   6.805   8.999
27758SOL    HW195333   9.345   6.710   8.981
27758SOL    HW295334   9.293   6.864   8.972
27759SOL     OW95335   9.409   7.203   8.427
27759SOL    HW195336   9.398   7.107   8.453
27759SOL    HW295337   9.437   7.209   8.331
27760SOL     OW95338   9.701   6.142   8.072
27760SOL    HW195339   9.643   6.070   8.033
27760SOL    HW295340   9.789   6.143   8.025
27761SOL     OW95341   9.694   6.664   8.842
27761SOL    HW195342   9.794   6.660   8.830
27761SOL    HW295343   9.665   6.759   8.845
27762SOL     OW95344   9.396   6.817   7.451
27762SOL    HW195345   9.387   6.829   7.352
27762SOL    HW295346   9.484   6.855   7.481
27763SOL     OW95347   9.805   7.195   7.613
27763SOL    HW195348   9.892   7.244   7.602
27763SOL    HW295349   9.820   7.113   7.668
27764SOL     OW95350   9.745   7.252   8.775
27764SOL    HW195351   9.812   7.326   8.774
27764SOL    HW295352   9.666   7.276   8.719
27765SOL     OW95353   9.433   6.082   9.110
27765SOL    HW195354   9.423   5.982   9.106
27765SOL    HW295355   9.519   6.105   9.157
27766SOL     OW95356   9.184   6.509   8.103
27766SOL    HW195357   9.206   6.586   8.043
27766SOL    HW295358   9.085   6.508   8.122
27767SOL     OW95359   9.830   6.204   8.949
27767SOL    HW195360   9.732   6.200   8.929
27767SOL    HW295361   9.875   6.264   8.883
27768SOL     OW95362   9.978   6.077   8.419
27768SOL    HW195363   0.065   6.085   8.467
27768SOL    HW295364   9.908   6.128   8.468
27769SOL     OW95365   9.887   6.879   8.562
27769SOL    HW195366   9.788   6.869   8.573
27769SOL    HW295367   9.928   6.790   8.542
27770SOL     OW95368   9.377   6.247   8.545
27770SOL    HW195369   9.414   6.311   8.611
27770SOL    HW295370   9.376   6.289   8.454
27771SOL     OW95371   9.583   6.912   8.867
27771SOL    HW195372   9.610   6.997   8.912
27771SOL    HW295373   9.503   6.873   8.913
27772SOL     OW95374   9.643   5.818   9.248
27772SOL    HW195375   9.560   5.804   9.195
27772SOL    HW295376   9.689   5.902   9.218
27773SOL     OW95377   9.789   7.049   9.618
27773SOL    HW195378   9.758   7.123   9.678
27773SOL    HW295379   9.859   6.995   9.665
27774SOL     OW95380   9.794   5.618   9.373
27774SOL    HW195381   9.890   5.646   9.377
27774SOL    HW295382   9.741   5.687   9.324
27775SOL     OW95383   9.639   6.941   9.419
27775SOL    HW195384   9.687   6.961   9.334
27775SOL    HW295385   9.686   6.984   9.496
27776SOL     OW95386   9.826   5.882   0.350
27776SOL    HW195387   9.831   5.961   0.290
27776SOL    HW295388   9.828   5.798   0.296
27777SOL     OW95389   9.535   6.366   9.737
27777SOL    HW195390   9.580   6.369   9.826
27777SOL    HW295391   9.442   6.402   9.745
27778SOL     OW95392   9.781   6.223   9.391
27778SOL    HW195393   9.756   6.316   9.365
27778SOL    HW295394   9.879   6.219   9.412
27779SOL     OW95395   9.635   5.829   9.740
27779SOL    HW195396   9.700   5.896   9.777
27779SOL    HW295397   9.605   5.858   9.649
27780SOL     OW95398   9.302   6.165   9.804
27780SOL    HW195399   9.287   6.122   9.893
27780SOL    HW295400   9.314   6.263   9.815
27781SOL     OW95401   9.395   7.047   9.584
27781SOL    HW195402   9.421   7.046   9.680
27781SOL    HW295403   9.469   7.011   9.528
27782SOL     OW95404   9.717   6.471   9.324
27782SOL    HW195405   9.680   6.498   9.235
27782SOL    HW295406   9.725   6.552   9.382
27783SOL     OW95407   9.341   6.352   9.447
27783SOL    HW195408   9.422   6.296   9.460
27783SOL    HW295409   9.263   6.310   9.494
27784SOL     OW95410   9.317   5.934   9.651
27784SOL    HW195411   9.397   5.923   9.592
27784SOL    HW295412   9.330   6.014   9.709
27785SOL     OW95413   9.545   7.367   9.437
27785SOL    HW195414   9.635   7.408   9.423
27785SOL    HW295415   9.527   7.358   9.535
27786SOL     OW95416  10.000   5.855   0.002
27786SOL    HW195417   0.048   5.777   0.041
27786SOL    HW295418   0.058   5.936   0.007
27787SOL     OW95419   9.551   6.181   9.529
27787SOL    HW195420   9.638   6.197   9.482
27787SOL    HW295421   9.547   6.237   9.611
27788SOL     OW95422   9.733   7.265   9.763
27788SOL    HW195423   9.647   7.315   9.752
27788SOL    HW295424   9.805   7.329   9.791
27789SOL     OW95425   9.539   5.909   9.489
27789SOL    HW195426   9.587   5.878   9.406
27789SOL    HW295427   9.543   6.008   9.495
27790SOL     OW95428   9.252   6.094   0.060
27790SOL    HW195429   9.248   6.187   0.099
27790SOL    HW295430   9.319   6.040   0.111
27791SOL     OW95431   9.763   6.693   9.485
27791SOL    HW195432   9.858   6.721   9.468
27791SOL    HW295433   9.703   6.771   9.470
27792SOL     OW95434   0.055   6.237   9.395
27792SOL    HW195435   0.046   6.235   9.296
27792SOL    HW295436   0.138   6.189   9.423
27793SOL     OW95437   9.413   5.658   9.393
27793SOL    HW195438   9.474   5.588   9.431
27793SOL    HW295439   9.436   5.747   9.432
27794SOL     OW95440   9.522   5.581   9.704
27794SOL    HW195441   9.569   5.668   9.722
27794SOL    HW295442   9.423   5.595   9.710
27795SOL     OW95443   9.331   6.635   9.435
27795SOL    HW195444   9.353   6.538   9.446
27795SOL    HW295445   9.394   6.676   9.369
27796SOL     OW95446   0.005   7.125   9.229
27796SOL    HW195447   9.978   7.175   9.312
27796SOL    HW295448   0.073   7.056   9.253
27797SOL     OW95449   9.989   6.588   0.118
27797SOL    HW195450   0.062   6.654   0.106
27797SOL    HW295451   0.023   6.508   0.168
27798SOL     OW95452   9.776   6.494   9.681
27798SOL    HW195453   9.772   6.568   9.614
27798SOL    HW295454   9.688   6.445   9.682
27799SOL     OW95455   9.265   5.665   9.705
27799SOL    HW195456   9.168   5.639   9.711
27799SOL    HW295457   9.273   5.764   9.698
27800SOL     OW95458   9.812   5.995   9.862
27800SOL    HW195459   9.865   5.933   9.920
27800SOL    HW295460   9.873   6.054   9.810
27801SOL     OW95461   9.497   6.765   9.246
27801SOL    HW195462   9.446   6.804   9.170
27801SOL    HW295463   9.531   6.839   9.304
27802SOL     OW95464   9.909   7.243   9.450
27802SOL    HW195465   9.857   7.327   9.437
27802SOL    HW295466   9.861   7.183   9.514
27803SOL     OW95467   9.278   6.436   9.839
27803SOL    HW195468   9.313   6.515   9.889
27803SOL    HW295469   9.179   6.429   9.852
27804SOL     OW95470   0.063   6.121   0.295
27804SOL    HW195471   0.158   6.090   0.300
27804SOL    HW295472   0.018   6.105   0.383
27805SOL     OW95473   9.630   7.644   0.061
27805SOL    HW195474   9.634   7.672   9.965
27805SOL    HW295475   9.702   7.690   0.112
27806SOL     OW95476   9.871   8.862   0.379
27806SOL    HW195477   9.819   8.855   0.464
27806SOL    HW295478   9.966   8.836   0.397
27807SOL     OW95479   9.767   7.404   0.064
27807SOL    HW195480   9.825   7.403   9.983
27807SOL    HW295481   9.712   7.487   0.065
27808SOL     OW95482   9.649   8.566   0.609
27808SOL    HW195483   9.604   8.557   0.698
27808SOL    HW295484   9.696   8.480   0.588
27809SOL     OW95485   9.738   8.729   0.171
27809SOL    HW195486   9.780   8.763   0.087
27809SOL    HW295487   9.776   8.779   0.249
27810SOL     OW95488   9.849   7.636   1.154
27810SOL    HW195489   9.921   7.705   1.143
27810SOL    HW295490   9.855   7.569   1.080
27811SOL     OW95491   9.562   8.149   0.490
27811SOL    HW195492   9.598   8.202   0.567
27811SOL    HW295493   9.471   8.115   0.513
27812SOL     OW95494   9.708   8.001   0.064
27812SOL    HW195495   9.725   8.093   0.029
27812SOL    HW295496   9.744   7.933  10.000
27813SOL     OW95497   9.882   8.943   0.796
27813SOL    HW195498   9.975   8.942   0.760
27813SOL    HW295499   9.822   8.890   0.736
27814SOL     OW95500   9.464   8.653   0.422
27814SOL    HW195501   9.534   8.621   0.485
27814SOL    HW295502   9.483   8.618   0.330
27815SOL     OW95503   9.577   7.896   1.089
27815SOL    HW195504   9.567   7.809   1.137
27815SOL    HW295505   9.502   7.957   1.116
27816SOL     OW95506   9.625   7.680   0.455
27816SOL    HW195507   9.642   7.749   0.526
27816SOL    HW295508   9.685   7.698   0.377
27817SOL     OW95509   9.309   8.080   0.591
27817SOL    HW195510   9.291   8.017   0.667
27817SOL    HW295511   9.279   8.172   0.618
27818SOL     OW95512   9.774   7.745   0.881
27818SOL    HW195513   9.728   7.774   0.964
27818SOL    HW295514   9.802   7.649   0.890
27819SOL     OW95515   9.584   7.646   1.219
27819SOL    HW195516   9.545   7.557   1.194
27819SOL    HW295517   9.683   7.643   1.207
27820SOL     OW95518   9.369   8.904   0.362
27820SOL    HW195519   9.394   8.809   0.382
27820SOL    HW295520   9.447   8.950   0.319
27821SOL     OW95521   9.463   8.962   0.618
27821SOL    HW195522   9.386   8.982   0.679
27821SOL    HW295523   9.428   8.948   0.525
27822SOL     OW95524   9.742   8.265   9.981
27822SOL    HW195525   9.813   8.312   9.929
27822SOL    HW295526   9.732   8.309   0.070
27823SOL     OW95527   9.314   8.157   0.193
27823SOL    HW195528   9.395   8.103   0.220
27823SOL    HW295529   9.241   8.143   0.261
27824SOL     OW95530   9.337   7.968   1.474
27824SOL    HW195531   9.365   7.874   1.455
27824SOL    HW295532   9.272   7.969   1.550
27825SOL     OW95533   9.402   7.707   1.425
27825SOL    HW195534   9.475   7.689   1.359
27825SOL    HW295535   9.320   7.656   1.399
27826SOL     OW95536   9.533   8.510   0.851
27826SOL    HW195537   9.438   8.541   0.854
27826SOL    HW295538   9.568   8.501   0.944
27827SOL     OW95539   9.253   7.695   0.411
27827SOL    HW195540   9.318   7.722   0.341
27827SOL    HW295541   9.296   7.701   0.501
27828SOL     OW95542   9.979   8.101   1.391
27828SOL    HW195543   9.980   8.201   1.387
27828SOL    HW295544   0.048   8.065   1.328
27829SOL     OW95545   9.269   9.253   1.402
27829SOL    HW195546   9.301   9.348   1.402
27829SOL    HW295547   9.184   9.247   1.455
27830SOL     OW95548   9.572   8.039   0.838
27830SOL    HW195549   9.600   7.982   0.761
27830SOL    HW295550   9.580   7.986   0.923
27831SOL     OW95551   9.590   9.023   0.265
27831SOL    HW195552   9.609   9.036   0.167
27831SOL    HW295553   9.666   9.061   0.318
27832SOL     OW95554   9.277   8.589   0.925
27832SOL    HW195555   9.187   8.583   0.882
27832SOL    HW295556   9.284   8.522   0.999
27833SOL     OW95557   9.229   8.523   0.490
27833SOL    HW195558   9.310   8.582   0.484
27833SOL    HW295559   9.215   8.477   0.402
27834SOL     OW95560   9.338   8.799   1.089
27834SOL    HW195561   9.322   8.734   1.015
27834SOL    HW295562   9.261   8.797   1.152
27835SOL     OW95563   9.968   8.887   1.400
27835SOL    HW195564   9.916   8.970   1.382
27835SOL    HW295565   9.938   8.814   1.339
27836SOL     OW95566   9.375   7.657   1.698
27836SOL    HW195567   9.388   7.670   1.600
27836SOL    HW295568   9.279   7.636   1.717
27837SOL     OW95569   9.523   7.991   0.263
27837SOL    HW195570   9.597   7.994   0.195
27837SOL    HW295571   9.554   8.036   0.347
27838SOL     OW95572   9.787   9.176   0.686
27838SOL    HW195573   9.692   9.165   0.654
27838SOL    HW295574   9.816   9.091   0.731
27839SOL     OW95575   9.559   8.745   1.241
27839SOL    HW195576   9.517   8.718   1.327
27839SOL    HW295577   9.489   8.781   1.179
27840SOL     OW95578   9.632   8.283   0.719
27840SOL    HW195579   9.591   8.358   0.770
27840SOL    HW295580   9.622   8.198   0.771
27841SOL     OW95581   9.414   7.753   0.189
27841SOL    HW195582   9.487   7.706   0.140
27841SOL    HW295583   9.448   7.838   0.227
27842SOL     OW95584   9.237   7.943   0.817
27842SOL    HW195585   9.175   8.001   0.869
27842SOL    HW295586   9.258   7.861   0.870
27843SOL     OW95587   9.787   8.455   0.203
27843SOL    HW195588   9.886   8.456   0.188
27843SOL    HW295589   9.751   8.548   0.202
27844SOL     OW95590   9.330   7.479   0.177
27844SOL    HW195591   9.414   7.425   0.178
27844SOL    HW295592   9.352   7.575   0.190
27845SOL     OW95593   9.585   8.499   1.123
27845SOL    HW195594   9.649   8.455   1.186
27845SOL    HW295595   9.571   8.594   1.151
27846SOL     OW95596   9.825   8.001   1.158
27846SOL    HW195597   9.826   8.051   1.244
27846SOL    HW295598   9.731   7.976   1.134
27847SOL     OW95599   0.004   8.373   1.361
27847SOL    HW195600   0.043   8.378   1.269
27847SOL    HW295601   0.066   8.416   1.426
27848SOL     OW95602   9.855   7.479   0.925
27848SOL    HW195603   9.832   7.441   0.836
27848SOL    HW295604   9.915   7.415   0.974
27849SOL     OW95605   9.523   9.148   1.322
27849SOL    HW195606   9.501   9.111   1.232
27849SOL    HW295607   9.439   9.177   1.368
27850SOL     OW95608   9.328   8.400   1.116
27850SOL    HW195609   9.422   8.429   1.132
27850SOL    HW295610   9.327   8.330   1.045
27851SOL     OW95611   9.585   7.410   0.498
27851SOL    HW195612   9.596   7.509   0.485
27851SOL    HW295613   9.488   7.388   0.501
27852SOL     OW95614   9.952   8.039   1.658
27852SOL    HW195615   9.950   8.055   1.559
27852SOL    HW295616   0.040   7.998   1.682
27853SOL     OW95617   9.288   8.430   0.218
27853SOL    HW195618   9.302   8.333   0.200
27853SOL    HW295619   9.366   8.482   0.185
27854SOL     OW95620   9.410   8.214   1.394
27854SOL    HW195621   9.386   8.122   1.425
27854SOL    HW295622   9.496   8.243   1.436
27855SOL     OW95623   0.075   8.834   0.102
27855SOL    HW195624   0.003   8.903   0.097
27855SOL    HW295625   0.107   8.827   0.196
27856SOL     OW95626   9.741   9.043   1.035
27856SOL    HW195627   9.800   8.994   0.971
27856SOL    HW295628   9.781   9.041   1.126
27857SOL     OW95629   9.363   8.220   0.909
27857SOL    HW195630   9.427   8.153   0.873
27857SOL    HW295631   9.308   8.258   0.834
27858SOL     OW95632   9.771   7.706   1.851
27858SOL    HW195633   9.853   7.683   1.799
27858SOL    HW295634   9.774   7.802   1.878
27859SOL     OW95635   9.801   8.228   0.361
27859SOL    HW195636   9.781   8.312   0.309
27859SOL    HW295637   9.716   8.193   0.400
27860SOL     OW95638   9.710   8.835   0.608
27860SOL    HW195639   9.693   8.736   0.609
27860SOL    HW295640   9.623   8.883   0.615
27861SOL     OW95641   9.384   8.661   1.439
27861SOL    HW195642   9.325   8.584   1.416
27861SOL    HW295643   9.327   8.736   1.475
27862SOL     OW95644   9.461   9.044   1.076
27862SOL    HW195645   9.423   8.952   1.065
27862SOL    HW295646   9.556   9.045   1.045
27863SOL     OW95647   9.704   7.869   0.650
27863SOL    HW195648   9.729   7.815   0.731
27863SOL    HW295649   9.784   7.920   0.619
27864SOL     OW95650   9.751   8.457   1.335
27864SOL    HW195651   9.842   8.416   1.349
27864SOL    HW295652   9.713   8.483   1.424
27865SOL     OW95653   9.492   8.614   0.141
27865SOL    HW195654   9.430   8.665   0.081
27865SOL    HW295655   9.577   8.665   0.151
27866SOL     OW95656   9.897   9.037   0.170
27866SOL    HW195657   9.952   9.118   0.192
27866SOL    HW295658   9.886   8.981   0.252
27867SOL     OW95659   9.797   9.096   1.316
27867SOL    HW195660   9.837   9.181   1.349
27867SOL    HW295661   9.698   9.100   1.325
27868SOL     OW95662   9.337   7.878   1.860
27868SOL    HW195663   9.364   7.798   1.807
27868SOL    HW295664   9.412   7.904   1.921
27869SOL     OW95665   9.218   8.322   0.687
27869SOL    HW195666   9.236   8.397   0.624
27869SOL    HW295667   9.119   8.315   0.703
27870SOL     OW95668   0.036   7.840   1.134
27870SOL    HW195669   0.118   7.895   1.147
27870SOL    HW295670   9.955   7.899   1.135
27871SOL     OW95671   9.843   8.704   1.230
27871SOL    HW195672   9.754   8.750   1.222
27871SOL    HW295673   9.829   8.609   1.256
27872SOL     OW95674   9.385   8.081   1.152
27872SOL    HW195675   9.392   8.146   1.227
27872SOL    HW295676   9.366   8.130   1.067
27873SOL     OW95677   9.553   7.558   1.873
27873SOL    HW195678   9.483   7.586   1.808
27873SOL    HW295679   9.633   7.618   1.863
27874SOL     OW95680   9.863   9.010   2.347
27874SOL    HW195681   9.783   8.996   2.406
27874SOL    HW295682   9.912   8.924   2.337
27875SOL     OW95683   9.758   7.404   1.985
27875SOL    HW195684   9.842   7.414   1.932
27875SOL    HW295685   9.690   7.469   1.952
27876SOL     OW95686   9.725   8.641   2.628
27876SOL    HW195687   9.650   8.601   2.680
27876SOL    HW295688   9.747   8.583   2.550
27877SOL     OW95689   9.736   7.676   2.888
27877SOL    HW195690   9.759   7.771   2.908
27877SOL    HW295691   9.811   7.634   2.837
27878SOL     OW95692   9.532   8.092   2.260
27878SOL    HW195693   9.446   8.086   2.311
27878SOL    HW295694   9.569   8.185   2.268
27879SOL     OW95695   9.409   8.388   3.453
27879SOL    HW195696   9.497   8.430   3.475
27879SOL    HW295697   9.365   8.355   3.537
27880SOL     OW95698   9.802   7.969   1.897
27880SOL    HW195699   9.818   8.006   1.805
27880SOL    HW295700   9.886   7.976   1.951
27881SOL     OW95701   9.882   9.029   2.691
27881SOL    HW195702   9.971   9.027   2.646
27881SOL    HW295703   9.816   8.978   2.636
27882SOL     OW95704   9.556   7.877   3.132
27882SOL    HW195705   9.544   7.779   3.120
27882SOL    HW295706   9.478   7.925   3.091
27883SOL     OW95707   9.567   7.670   2.363
27883SOL    HW195708   9.493   7.687   2.429
27883SOL    HW295709   9.530   7.677   2.270
27884SOL     OW95710   9.945   8.484   3.503
27884SOL    HW195711   9.846   8.487   3.518
27884SOL    HW295712   9.988   8.428   3.574
27885SOL     OW95713   9.319   8.086   2.427
27885SOL    HW195714   9.290   8.014   2.491
27885SOL    HW295715   9.295   8.175   2.464
27886SOL     OW95716   9.528   7.589   2.721
27886SOL    HW195717   9.593   7.627   2.786
27886SOL    HW295718   9.557   7.497   2.694
27887SOL     OW95719   9.569   7.602   3.095
27887SOL    HW195720   9.548   7.505   3.094
27887SOL    HW295721   9.634   7.623   3.021
27888SOL     OW95722   9.395   9.015   2.221
27888SOL    HW195723   9.448   8.988   2.141
27888SOL    HW295724   9.419   9.108   2.247
27889SOL     OW95725   9.404   8.961   2.493
27889SOL    HW195726   9.309   8.956   2.522
27889SOL    HW295727   9.408   8.971   2.394
27890SOL     OW95728   0.094   9.212   2.986
27890SOL    HW195729   0.178   9.163   2.964
27890SOL    HW295730   0.021   9.146   3.001
27891SOL     OW95731   9.567   8.017   3.366
27891SOL    HW195732   9.560   7.954   3.288
27891SOL    HW295733   9.504   7.989   3.438
27892SOL     OW95734   9.402   7.643   3.313
27892SOL    HW195735   9.470   7.627   3.242
27892SOL    HW295736   9.310   7.632   3.274
27893SOL     OW95737   9.521   8.509   2.760
27893SOL    HW195738   9.427   8.543   2.755
27893SOL    HW295739   9.538   8.476   2.853
27894SOL     OW95740   9.236   7.676   2.310
27894SOL    HW195741   9.298   7.707   2.237
27894SOL    HW295742   9.277   7.695   2.399
27895SOL     OW95743   9.944   8.098   3.138
27895SOL    HW195744   9.944   8.186   3.186
27895SOL    HW295745   0.033   8.085   3.094
27896SOL     OW95746   9.295   9.232   3.269
27896SOL    HW195747   9.245   9.318   3.272
27896SOL    HW295748   9.282   9.183   3.355
27897SOL     OW95749   9.627   8.079   2.693
27897SOL    HW195750   9.630   8.020   2.612
27897SOL    HW295751   9.686   8.040   2.764
27898SOL     OW95752   9.244   8.565   2.784
27898SOL    HW195753   9.151   8.572   2.749
27898SOL    HW295754   9.247   8.501   2.861
27899SOL     OW95755   9.752   8.753   3.622
27899SOL    HW195756   9.728   8.833   3.568
27899SOL    HW295757   9.850   8.753   3.640
27900SOL     OW95758   9.660   8.512   3.504
27900SOL    HW195759   9.682   8.511   3.407
27900SOL    HW295760   9.673   8.605   3.540
27901SOL     OW95761   9.327   8.785   2.942
27901SOL    HW195762   9.300   8.720   2.871
27901SOL    HW295763   9.256   8.791   3.011
27902SOL     OW95764   9.914   8.861   3.279
27902SOL    HW195765   9.867   8.949   3.271
27902SOL    HW295766   9.886   8.801   3.204
27903SOL     OW95767   9.363   7.661   3.579
27903SOL    HW195768   9.379   7.651   3.481
27903SOL    HW295769   9.269   7.637   3.601
27904SOL     OW95770   9.280   9.086   3.503
27904SOL    HW195771   9.365   9.108   3.550
27904SOL    HW295772   9.204   9.093   3.567
27905SOL     OW95773   9.365   7.717   2.550
27905SOL    HW195774   9.328   7.801   2.590
27905SOL    HW295775   9.426   7.673   2.615
27906SOL     OW95776   9.553   7.934   2.034
27906SOL    HW195777   9.639   7.952   1.987
27906SOL    HW295778   9.544   7.995   2.113
27907SOL     OW95779   9.528   9.128   2.680
27907SOL    HW195780   9.473   9.082   2.610
27907SOL    HW295781   9.625   9.108   2.665
27908SOL     OW95782   9.549   8.698   3.081
27908SOL    HW195783   9.541   8.726   3.177
27908SOL    HW295784   9.472   8.737   3.029
27909SOL     OW95785   9.574   8.326   2.564
27909SOL    HW195786   9.568   8.392   2.639
27909SOL    HW295787   9.609   8.239   2.599
27910SOL     OW95788   9.454   7.687   2.108
27910SOL    HW195789   9.488   7.628   2.035
27910SOL    HW295790   9.481   7.782   2.089
27911SOL     OW95791   9.249   7.941   2.658
27911SOL    HW195792   9.153   7.953   2.685
27911SOL    HW295793   9.305   8.006   2.709
27912SOL     OW95794   0.062   7.984   1.982
27912SOL    HW195795   0.112   7.969   1.896
27912SOL    HW295796   0.125   7.978   2.059
27913SOL     OW95797   9.289   7.456   2.032
27913SOL    HW195798   9.361   7.389   2.053
27913SOL    HW295799   9.310   7.543   2.077
27914SOL     OW95800   9.532   8.427   3.024
27914SOL    HW195801   9.545   8.363   3.099
27914SOL    HW295802   9.549   8.520   3.056
27915SOL     OW95803   9.770   7.944   2.974
27915SOL    HW195804   9.836   8.000   3.023
27915SOL    HW295805   9.691   7.925   3.033
27916SOL     OW95806   9.989   8.338   3.271
27916SOL    HW195807   0.087   8.321   3.257
27916SOL    HW295808   9.976   8.392   3.354
27917SOL     OW95809   9.888   7.463   2.651
27917SOL    HW195810   9.792   7.435   2.648
27917SOL    HW295811   9.938   7.405   2.715
27918SOL     OW95812   9.528   9.190   3.130
27918SOL    HW195813   9.498   9.138   3.050
27918SOL    HW295814   9.450   9.205   3.190
27919SOL     OW95815   9.263   8.384   2.986
27919SOL    HW195816   9.362   8.386   3.002
27919SOL    HW295817   9.236   8.294   2.952
27920SOL     OW95818   9.555   7.392   2.367
27920SOL    HW195819   9.583   7.488   2.369
27920SOL    HW295820   9.455   7.386   2.369
27921SOL     OW95821   9.995   8.062   3.609
27921SOL    HW195822   9.942   8.046   3.526
27921SOL    HW295823   0.083   8.015   3.603
27922SOL     OW95824   9.483   8.241   3.230
27922SOL    HW195825   9.525   8.164   3.277
27922SOL    HW295826   9.450   8.307   3.298
27923SOL     OW95827   0.086   8.957   2.101
27923SOL    HW195828   9.993   8.996   2.097
27923SOL    HW295829   0.108   8.916   2.013
27924SOL     OW95830   9.908   9.010   2.970
27924SOL    HW195831   9.883   9.012   2.873
27924SOL    HW295832   9.825   9.008   3.026
27925SOL     OW95833   9.380   8.156   2.778
27925SOL    HW195834   9.473   8.133   2.750
27925SOL    HW295835   9.340   8.219   2.712
27926SOL     OW95836   9.269   8.301   3.666
27926SOL    HW195837   9.170   8.311   3.660
27926SOL    HW295838   9.294   8.251   3.749
27927SOL     OW95839   9.720   7.856   3.616
27927SOL    HW195840   9.755   7.883   3.526
27927SOL    HW295841   9.733   7.931   3.680
27928SOL     OW95842   9.289   7.401   2.344
27928SOL    HW195843   9.222   7.330   2.325
27928SOL    HW295844   9.245   7.491   2.335
27929SOL     OW95845   9.660   8.973   3.481
27929SOL    HW195846   9.608   9.041   3.534
27929SOL    HW295847   9.702   9.018   3.402
27930SOL     OW95848   9.680   8.905   2.544
27930SOL    HW195849   9.700   8.811   2.572
27930SOL    HW295850   9.582   8.914   2.526
27931SOL     OW95851   9.515   9.162   3.631
27931SOL    HW195852   9.547   9.256   3.621
27931SOL    HW295853   9.522   9.135   3.728
27932SOL     OW95854   9.340   8.661   3.508
27932SOL    HW195855   9.333   8.568   3.471
27932SOL    HW295856   9.271   8.719   3.465
27933SOL     OW95857   9.416   9.050   2.919
27933SOL    HW195858   9.392   8.952   2.917
27933SOL    HW295859   9.454   9.077   2.831
27934SOL     OW95860   9.627   7.930   2.464
27934SOL    HW195861   9.633   7.834   2.436
27934SOL    HW295862   9.600   7.986   2.386
27935SOL     OW95863   9.756   8.493   3.249
27935SOL    HW195864   9.831   8.427   3.243
27935SOL    HW295865   9.778   8.573   3.193
27936SOL     OW95866   9.760   9.096   3.252
27936SOL    HW195867   9.816   9.174   3.282
27936SOL    HW295868   9.678   9.130   3.206
27937SOL     OW95869   9.410   7.933   3.583
27937SOL    HW195870   9.395   7.834   3.582
27937SOL    HW295871   9.477   7.956   3.653
27938SOL     OW95872   9.299   8.322   2.570
27938SOL    HW195873   9.396   8.337   2.549
27938SOL    HW295874   9.254   8.411   2.581
27939SOL     OW95875   9.839   8.012   3.389
27939SOL    HW195876   9.740   8.028   3.383
27939SOL    HW295877   9.881   8.028   3.300
27940SOL     OW95878   9.819   8.701   3.075
27940SOL    HW195879   9.720   8.708   3.065
27940SOL    HW295880   9.861   8.684   2.986
27941SOL     OW95881   9.377   8.067   3.036
27941SOL    HW195882   9.409   8.135   3.102
27941SOL    HW295883   9.385   8.103   2.944
27942SOL     OW95884   9.532   8.771   3.341
27942SOL    HW195885   9.581   8.846   3.387
27942SOL    HW295886   9.467   8.730   3.405
27943SOL     OW95887   9.598   7.633   3.713
27943SOL    HW195888   9.510   7.632   3.664
27943SOL    HW295889   9.656   7.704   3.675
27944SOL     OW95890   9.828   8.877   4.057
27944SOL    HW195891   9.773   8.894   4.138
27944SOL    HW295892   9.920   8.849   4.083
27945SOL     OW95893   9.757   7.440   3.837
27945SOL    HW195894   9.854   7.464   3.839
27945SOL    HW295895   9.706   7.512   3.790
27946SOL     OW95896   9.645   8.619   4.311
27946SOL    HW195897   9.605   8.606   4.402
27946SOL    HW295898   9.671   8.530   4.273
27947SOL     OW95899   9.652   8.752   3.876
27947SOL    HW195900   9.685   8.759   3.782
27947SOL    HW295901   9.711   8.805   3.937
27948SOL     OW95902   9.728   7.695   4.723
27948SOL    HW195903   9.807   7.757   4.728
27948SOL    HW295904   9.758   7.606   4.689
27949SOL     OW95905   9.541   8.157   4.188
27949SOL    HW195906   9.584   8.156   4.279
27949SOL    HW295907   9.442   8.149   4.198
27950SOL     OW95908   9.410   8.404   5.278
27950SOL    HW195909   9.506   8.413   5.304
27950SOL    HW295910   9.360   8.362   5.354
27951SOL     OW95911   9.765   8.082   3.765
27951SOL    HW195912   9.729   8.173   3.748
27951SOL    HW295913   9.856   8.073   3.726
27952SOL     OW95914   9.818   9.117   4.390
27952SOL    HW195915   9.871   9.084   4.469
27952SOL    HW295916   9.775   9.039   4.345
27953SOL     OW95917   9.486   8.716   4.108
27953SOL    HW195918   9.541   8.680   4.183
27953SOL    HW295919   9.534   8.702   4.021
27954SOL     OW95920   9.558   7.910   4.935
27954SOL    HW195921   9.547   7.811   4.930
27954SOL    HW295922   9.487   7.954   4.880
27955SOL     OW95923   9.595   7.657   4.183
27955SOL    HW195924   9.525   7.689   4.248
27955SOL    HW295925   9.573   7.690   4.091
27956SOL     OW95926   9.896   8.548   5.503
27956SOL    HW195927   9.916   8.646   5.496
27956SOL    HW295928   9.942   8.510   5.584
27957SOL     OW95929   9.283   8.127   4.277
27957SOL    HW195930   9.295   8.060   4.350
27957SOL    HW295931   9.262   8.217   4.317
27958SOL     OW95932   9.519   7.572   4.530
27958SOL    HW195933   9.578   7.615   4.597
27958SOL    HW295934   9.559   7.485   4.501
27959SOL     OW95935   9.558   7.629   4.925
27959SOL    HW195936   9.531   7.533   4.918
27959SOL    HW295937   9.626   7.649   4.854
27960SOL     OW95938   9.392   8.962   4.035
27960SOL    HW195939   9.423   8.869   4.053
27960SOL    HW295940   9.459   9.009   3.978
27961SOL     OW95941   9.417   8.994   4.309
27961SOL    HW195942   9.325   8.987   4.347
27961SOL    HW295943   9.413   8.999   4.210
27962SOL     OW95944   9.689   8.335   3.718
27962SOL    HW195945   9.666   8.393   3.640
27962SOL    HW295946   9.701   8.392   3.799
27963SOL     OW95947   9.313   8.177   3.906
27963SOL    HW195948   9.392   8.116   3.915
27963SOL    HW295949   9.236   8.140   3.958
27964SOL     OW95950   9.518   8.050   5.171
27964SOL    HW195951   9.537   7.984   5.098
27964SOL    HW295952   9.473   8.003   5.247
27965SOL     OW95953   9.400   7.661   5.148
27965SOL    HW195954   9.466   7.653   5.074
27965SOL    HW295955   9.308   7.649   5.113
27966SOL     OW95956   9.534   8.594   4.559
27966SOL    HW195957   9.434   8.597   4.570
27966SOL    HW295958   9.578   8.596   4.648
27967SOL     OW95959   9.279   7.726   4.114
27967SOL    HW195960   9.348   7.741   4.044
27967SOL    HW295961   9.320   7.737   4.205
27968SOL     OW95962   9.932   8.124   5.024
27968SOL    HW195963   9.862   8.172   5.077
27968SOL    HW295964   9.987   8.066   5.084
27969SOL     OW95965   9.276   9.239   5.080
27969SOL    HW195966   9.229   9.326   5.097
27969SOL    HW295967   9.275   9.184   5.164
27970SOL     OW95968   9.556   7.883   4.602
27970SOL    HW195969   9.608   7.890   4.517
27970SOL    HW295970   9.607   7.828   4.668
27971SOL     OW95971   9.555   9.153   3.907
27971SOL    HW195972   9.647   9.176   3.875
27971SOL    HW295973   9.542   9.190   3.999
27972SOL     OW95974   9.271   8.596   4.645
27972SOL    HW195975   9.181   8.583   4.605
27972SOL    HW295976   9.286   8.529   4.717
27973SOL     OW95977   9.245   8.577   4.198
27973SOL    HW195978   9.314   8.649   4.197
27973SOL    HW295979   9.251   8.523   4.114
27974SOL     OW95980   9.693   8.809   5.559
27974SOL    HW195981   9.667   8.872   5.486
27974SOL    HW295982   9.793   8.802   5.563
27975SOL     OW95983   9.661   8.435   5.406
27975SOL    HW195984   9.754   8.471   5.419
27975SOL    HW295985   9.596   8.492   5.455
27976SOL     OW95986   9.303   8.832   4.777
27976SOL    HW195987   9.295   8.753   4.717
27976SOL    HW295988   9.231   8.830   4.846
27977SOL     OW95989   9.392   7.660   5.417
27977SOL    HW195990   9.399   7.656   5.317
27977SOL    HW295991   9.298   7.642   5.445
27978SOL     OW95992   9.266   9.097   5.320
27978SOL    HW195993   9.352   9.119   5.367
27978SOL    HW295994   9.190   9.101   5.385
27979SOL     OW95995   9.401   7.741   4.355
27979SOL    HW195996   9.367   7.823   4.402
27979SOL    HW295997   9.439   7.678   4.422
27980SOL     OW95998   9.552   8.024   3.941
27980SOL    HW195999   9.631   8.046   3.884
27980SOL    HW296000   9.561   8.068   4.030
27981SOL     OW96001   9.546   9.163   4.480
27981SOL    HW196002   9.497   9.108   4.412
27981SOL    HW296003   9.643   9.169   4.454
27982SOL     OW96004   9.475   8.708   4.956
27982SOL    HW196005   9.488   8.764   5.037
27982SOL    HW296006   9.421   8.759   4.888
27983SOL     OW96007   9.623   8.162   4.456
27983SOL    HW196008   9.691   8.204   4.515
27983SOL    HW296009   9.647   8.066   4.440
27984SOL     OW96010   9.492   7.754   3.941
27984SOL    HW196011   9.535   7.709   3.862
27984SOL    HW296012   9.511   7.852   3.938
27985SOL     OW96013   9.313   7.960   4.493
27985SOL    HW196014   9.238   8.000   4.546
27985SOL    HW296015   9.392   7.946   4.552
27986SOL     OW96016   9.742   8.500   3.932
27986SOL    HW196017   9.840   8.515   3.946
27986SOL    HW296018   9.698   8.587   3.908
27987SOL     OW96019   0.049   8.052   4.047
27987SOL    HW196020   0.028   7.978   3.984
27987SOL    HW296021   0.002   8.036   4.134
27988SOL     OW96022   9.305   7.461   3.870
27988SOL    HW196023   9.383   7.404   3.894
27988SOL    HW296024   9.331   7.557   3.875
27989SOL     OW96025   9.778   8.038   4.816
27989SOL    HW196026   9.832   8.080   4.890
27989SOL    HW296027   9.695   7.997   4.854
27990SOL     OW96028   9.810   7.464   4.627
27990SOL    HW196029   9.766   7.410   4.556
27990SOL    HW296030   9.901   7.428   4.646
27991SOL     OW96031   9.436   9.300   4.862
27991SOL    HW196032   9.431   9.219   4.804
27991SOL    HW296033   9.387   9.284   4.947
27992SOL     OW96034   9.306   8.392   4.820
27992SOL    HW196035   9.351   8.355   4.902
27992SOL    HW296036   9.335   8.340   4.740
27993SOL     OW96037   9.518   7.388   4.194
27993SOL    HW196038   9.562   7.478   4.194
27993SOL    HW296039   9.419   7.399   4.204
27994SOL     OW96040   9.292   8.452   3.957
27994SOL    HW196041   9.315   8.357   3.939
27994SOL    HW296042   9.339   8.512   3.891
27995SOL     OW96043   9.399   8.259   5.045
27995SOL    HW196044   9.446   8.180   5.086
27995SOL    HW296045   9.404   8.336   5.109
27996SOL     OW96046   0.018   8.752   3.772
27996SOL    HW196047   9.990   8.847   3.784
27996SOL    HW296048   0.109   8.748   3.730
27997SOL     OW96049   9.387   8.253   4.592
27997SOL    HW196050   9.469   8.221   4.544
27997SOL    HW296051   9.327   8.299   4.527
27998SOL     OW96052   9.277   8.292   5.486
27998SOL    HW196053   9.178   8.297   5.479
27998SOL    HW296054   9.303   8.245   5.570
27999SOL     OW96055   9.820   7.817   5.503
27999SOL    HW196056   9.912   7.810   5.463
27999SOL    HW296057   9.814   7.900   5.558
28000SOL     OW96058   9.701   8.383   4.174
28000SOL    HW196059   9.710   8.421   4.082
28000SOL    HW296060   9.637   8.306   4.171
28001SOL     OW96061   9.252   7.461   4.191
28001SOL    HW196062   9.157   7.431   4.186
28001SOL    HW296063   9.259   7.555   4.159
28002SOL     OW96064   9.672   8.998   5.361
28002SOL    HW196065   9.610   9.071   5.388
28002SOL    HW296066   9.765   9.035   5.353
28003SOL     OW96067   9.681   8.894   4.294
28003SOL    HW196068   9.681   8.795   4.309
28003SOL    HW296069   9.587   8.929   4.302
28004SOL     OW96070   9.492   9.178   5.466
28004SOL    HW196071   9.522   9.273   5.464
28004SOL    HW296072   9.486   9.147   5.561
28005SOL     OW96073   9.343   8.674   5.326
28005SOL    HW196074   9.349   8.582   5.286
28005SOL    HW296075   9.265   8.722   5.286
28006SOL     OW96076   9.386   9.084   4.705
28006SOL    HW196077   9.367   8.988   4.725
28006SOL    HW296078   9.443   9.090   4.624
28007SOL     OW96079   9.708   7.907   4.371
28007SOL    HW196080   9.689   7.824   4.318
28007SOL    HW296081   9.796   7.945   4.343
28008SOL     OW96082   9.415   8.620   3.777
28008SOL    HW196083   9.386   8.637   3.683
28008SOL    HW296084   9.492   8.680   3.799
28009SOL     OW96085   9.910   9.000   3.821
28009SOL    HW196086   9.868   9.089   3.802
28009SOL    HW296087   9.880   8.967   3.910
28010SOL     OW96088   9.403   7.938   5.402
28010SOL    HW196089   9.404   7.838   5.410
28010SOL    HW296090   9.450   7.978   5.481
28011SOL     OW96091   9.221   8.367   4.389
28011SOL    HW196092   9.244   8.447   4.332
28011SOL    HW296093   9.122   8.360   4.396
28012SOL     OW96094   9.732   8.222   5.187
28012SOL    HW196095   9.654   8.160   5.185
28012SOL    HW296096   9.715   8.295   5.253
28013SOL     OW96097   9.950   7.854   4.720
28013SOL    HW196098   0.013   7.885   4.649
28013SOL    HW296099   9.894   7.930   4.751
28014SOL     OW96100   9.373   8.086   4.822
28014SOL    HW196101   9.381   8.151   4.898
28014SOL    HW296102   9.384   8.134   4.736
28015SOL     OW96103   9.490   8.864   5.185
28015SOL    HW196104   9.559   8.913   5.238
28015SOL    HW296105   9.442   8.799   5.244
28016SOL     OW96106   9.611   7.660   5.581
28016SOL    HW196107   9.534   7.662   5.517
28016SOL    HW296108   9.685   7.717   5.546
28017SOL     OW96109   9.879   8.897   5.957
28017SOL    HW196110   9.829   8.893   6.043
28017SOL    HW296111   9.975   8.875   5.972
28018SOL     OW96112   9.770   7.469   5.696
28018SOL    HW196113   9.856   7.511   5.725
28018SOL    HW296114   9.713   7.538   5.651
28019SOL     OW96115   9.658   8.603   6.208
28019SOL    HW196116   9.618   8.573   6.295
28019SOL    HW296117   9.698   8.524   6.161
28020SOL     OW96118   9.692   8.740   5.825
28020SOL    HW196119   9.680   8.767   5.729
28020SOL    HW296120   9.760   8.798   5.868
28021SOL     OW96121   9.833   7.610   6.613
28021SOL    HW196122   9.893   7.690   6.616
28021SOL    HW296123   9.888   7.526   6.620
28022SOL     OW96124   9.577   8.160   6.041
28022SOL    HW196125   9.610   8.208   6.123
28022SOL    HW296126   9.482   8.132   6.054
28023SOL     OW96127   9.379   8.360   7.132
28023SOL    HW196128   9.474   8.379   7.156
28023SOL    HW296129   9.328   8.338   7.215
28024SOL     OW96130   9.806   8.038   5.668
28024SOL    HW196131   9.770   8.128   5.645
28024SOL    HW296132   9.893   8.049   5.717
28025SOL     OW96133   9.854   9.038   6.342
28025SOL    HW196134   9.951   9.022   6.323
28025SOL    HW296135   9.798   8.977   6.285
28026SOL     OW96136   9.491   8.705   6.007
28026SOL    HW196137   9.537   8.671   6.089
28026SOL    HW296138   9.557   8.711   5.932
28027SOL     OW96139   9.598   7.915   6.668
28027SOL    HW196140   9.590   7.820   6.696
28027SOL    HW296141   9.513   7.964   6.690
28028SOL     OW96142   9.598   7.634   6.054
28028SOL    HW196143   9.535   7.663   6.126
28028SOL    HW296144   9.577   7.682   5.969
28029SOL     OW96145   9.894   8.586   7.275
28029SOL    HW196146   9.840   8.669   7.289
28029SOL    HW296147   9.917   8.546   7.364
28030SOL     OW96148   9.318   8.102   6.114
28030SOL    HW196149   9.315   8.032   6.186
28030SOL    HW296150   9.286   8.189   6.151
28031SOL     OW96151   9.583   7.570   6.416
28031SOL    HW196152   9.664   7.597   6.469
28031SOL    HW296153   9.579   7.470   6.410
28032SOL     OW96154   9.602   7.635   6.761
28032SOL    HW196155   9.568   7.542   6.775
28032SOL    HW296156   9.687   7.632   6.709
28033SOL     OW96157   9.359   8.907   5.860
28033SOL    HW196158   9.402   8.836   5.916
28033SOL    HW296159   9.430   8.954   5.806
28034SOL     OW96160   9.456   9.006   6.182
28034SOL    HW196161   9.359   8.984   6.194
28034SOL    HW296162   9.466   9.073   6.108
28035SOL     OW96163   9.703   8.282   5.633
28035SOL    HW196164   9.680   8.324   5.545
28035SOL    HW296165   9.717   8.354   5.701
28036SOL     OW96166   9.339   8.178   5.729
28036SOL    HW196167   9.422   8.125   5.747
28036SOL    HW296168   9.263   8.141   5.782
28037SOL     OW96169   0.056   9.157   6.685
28037SOL    HW196170   0.137   9.119   6.642
28037SOL    HW296171   9.981   9.091   6.681
28038SOL     OW96172   9.510   7.996   7.031
28038SOL    HW196173   9.479   7.909   6.992
28038SOL    HW296174   9.476   8.005   7.124
28039SOL     OW96175   9.420   7.746   6.943
28039SOL    HW196176   9.488   7.707   6.881
28039SOL    HW296177   9.329   7.716   6.915
28040SOL     OW96178   9.545   8.493   6.434
28040SOL    HW196179   9.452   8.528   6.430
28040SOL    HW296180   9.570   8.473   6.529
28041SOL     OW96181   9.290   7.717   5.997
28041SOL    HW196182   9.361   7.735   5.929
28041SOL    HW296183   9.330   7.718   6.088
28042SOL     OW96184   9.938   8.225   6.881
28042SOL    HW196185   9.942   8.301   6.945
28042SOL    HW296186   0.009   8.158   6.904
28043SOL     OW96187   9.284   9.225   6.938
28043SOL    HW196188   9.236   9.313   6.943
28043SOL    HW296189   9.272   9.176   7.025
28044SOL     OW96190   9.566   8.035   6.414
28044SOL    HW196191   9.610   7.981   6.342
28044SOL    HW296192   9.590   7.997   6.503
28045SOL     OW96193   9.512   9.142   5.744
28045SOL    HW196194   9.603   9.177   5.721
28045SOL    HW296195   9.496   9.154   5.842
28046SOL     OW96196   9.286   8.584   6.477
28046SOL    HW196197   9.199   8.581   6.428
28046SOL    HW296198   9.283   8.520   6.554
28047SOL     OW96199   9.264   8.542   6.019
28047SOL    HW196200   9.334   8.613   6.030
28047SOL    HW296201   9.271   8.503   5.927
28048SOL     OW96202   9.771   8.825   7.333
28048SOL    HW196203   9.717   8.874   7.265
28048SOL    HW296204   9.853   8.878   7.355
28049SOL     OW96205   9.624   8.435   7.215
28049SOL    HW196206   9.667   8.444   7.125
28049SOL    HW296207   9.618   8.525   7.258
28050SOL     OW96208   9.370   8.788   6.643
28050SOL    HW196209   9.347   8.724   6.569
28050SOL    HW296210   9.295   8.791   6.708
28051SOL     OW96211   9.934   8.863   6.971
28051SOL    HW196212   9.870   8.939   6.954
28051SOL    HW296213   9.934   8.801   6.892
28052SOL     OW96214   9.386   7.722   7.220
28052SOL    HW196215   9.391   7.724   7.120
28052SOL    HW296216   9.295   7.695   7.249
28053SOL     OW96217   9.272   9.067   7.163
28053SOL    HW196218   9.354   9.092   7.214
28053SOL    HW296219   9.193   9.066   7.225
28054SOL     OW96220   9.412   7.703   6.245
28054SOL    HW196221   9.377   7.788   6.284
28054SOL    HW296222   9.471   7.657   6.312
28055SOL     OW96223   9.561   8.019   5.803
28055SOL    HW196224   9.646   8.022   5.751
28055SOL    HW296225   9.573   8.068   5.889
28056SOL     OW96226   9.577   9.144   6.384
28056SOL    HW196227   9.529   9.098   6.309
28056SOL    HW296228   9.675   9.126   6.377
28057SOL     OW96229   9.624   8.729   6.750
28057SOL    HW196230   9.614   8.742   6.849
28057SOL    HW296231   9.540   8.756   6.704
28058SOL     OW96232   9.637   8.279   6.281
28058SOL    HW196233   9.604   8.354   6.338
28058SOL    HW296234   9.639   8.195   6.335
28059SOL     OW96235   9.498   7.753   5.819
28059SOL    HW196236   9.539   7.710   5.739
28059SOL    HW296237   9.515   7.852   5.816
28060SOL     OW96238   9.312   7.941   6.339
28060SOL    HW196239   9.231   7.981   6.382
28060SOL    HW296240   9.394   7.975   6.384
28061SOL     OW96241   9.779   8.476   5.819
28061SOL    HW196242   9.873   8.492   5.790
28061SOL    HW296243   9.731   8.564   5.825
28062SOL     OW96244   9.288   7.452   5.710
28062SOL    HW196245   9.371   7.397   5.721
28062SOL    HW296246   9.305   7.545   5.745
28063SOL     OW96247   9.574   8.454   6.708
28063SOL    HW196248   9.596   8.394   6.785
28063SOL    HW296249   9.601   8.548   6.730
28064SOL     OW96250   9.857   8.002   6.717
28064SOL    HW196251   9.866   8.090   6.763
28064SOL    HW296252   9.761   7.981   6.703
28065SOL     OW96253   9.974   8.442   7.054
28065SOL    HW196254   0.073   8.436   7.068
28065SOL    HW296255   9.931   8.482   7.136
28066SOL     OW96256   9.518   9.188   6.803
28066SOL    HW196257   9.486   9.142   6.720
28066SOL    HW296258   9.441   9.204   6.864
28067SOL     OW96259   9.306   8.394   6.669
28067SOL    HW196260   9.400   8.409   6.701
28067SOL    HW296261   9.306   8.327   6.595
28068SOL     OW96262   9.497   7.380   6.011
28068SOL    HW196263   9.548   7.463   6.033
28068SOL    HW296264   9.399   7.398   6.024
28069SOL     OW96265   9.894   7.981   7.284
28069SOL    HW196266   9.852   8.015   7.201
28069SOL    HW296267   9.994   7.983   7.274
28070SOL     OW96268   9.339   8.462   5.753
28070SOL    HW196269   9.357   8.364   5.743
28070SOL    HW296270   9.396   8.513   5.687
28071SOL     OW96271   9.471   8.232   6.901
28071SOL    HW196272   9.493   8.145   6.945
28071SOL    HW296273   9.433   8.295   6.969
28072SOL     OW96274   9.973   8.821   5.574
28072SOL    HW196275   9.964   8.902   5.632
28072SOL    HW296276   0.060   8.776   5.593
28073SOL     OW96277   9.860   8.980   6.626
28073SOL    HW196278   9.835   8.985   6.529
28073SOL    HW296279   9.790   8.930   6.676
28074SOL     OW96280   9.355   8.229   6.452
28074SOL    HW196281   9.436   8.181   6.420
28074SOL    HW296282   9.309   8.272   6.374
28075SOL     OW96283   9.249   8.305   7.356
28075SOL    HW196284   9.149   8.303   7.351
28075SOL    HW296285   9.279   8.258   7.439
28076SOL     OW96286   9.803   7.736   7.359
28076SOL    HW196287   9.864   7.667   7.320
28076SOL    HW296288   9.830   7.827   7.326
28077SOL     OW96289   9.832   8.243   5.956
28077SOL    HW196290   9.807   8.327   5.907
28077SOL    HW296291   9.749   8.194   5.983
28078SOL     OW96292   9.236   7.451   6.037
28078SOL    HW196293   9.140   7.425   6.031
28078SOL    HW296294   9.246   7.550   6.024
28079SOL     OW96295   9.637   8.979   7.153
28079SOL    HW196296   9.584   9.047   7.203
28079SOL    HW296297   9.678   9.020   7.072
28080SOL     OW96298   9.705   8.875   6.182
28080SOL    HW196299   9.696   8.776   6.195
28080SOL    HW296300   9.614   8.916   6.173
28081SOL     OW96301   9.490   9.163   7.300
28081SOL    HW196302   9.465   9.256   7.272
28081SOL    HW296303   9.507   9.161   7.398
28082SOL     OW96304   9.374   8.645   7.159
28082SOL    HW196305   9.353   8.549   7.140
28082SOL    HW296306   9.300   8.703   7.124
28083SOL     OW96307   9.408   9.060   6.589
28083SOL    HW196308   9.401   8.960   6.593
28083SOL    HW296309   9.463   9.086   6.510
28084SOL     OW96310   9.695   7.886   6.226
28084SOL    HW196311   9.697   7.798   6.178
28084SOL    HW296312   9.785   7.929   6.219
28085SOL     OW96313   9.719   8.499   6.965
28085SOL    HW196314   9.818   8.490   6.978
28085SOL    HW296315   9.692   8.594   6.981
28086SOL     OW96316   9.496   8.606   5.546
28086SOL    HW196317   9.429   8.634   5.477
28086SOL    HW296318   9.562   8.680   5.560
28087SOL     OW96319   9.920   9.044   5.727
28087SOL    HW196320   9.844   9.103   5.699
28087SOL    HW296321   9.899   9.002   5.815
28088SOL     OW96322   9.742   9.073   6.920
28088SOL    HW196323   9.806   9.149   6.928
28088SOL    HW296324   9.660   9.102   6.871
28089SOL     OW96325   9.426   7.982   7.295
28089SOL    HW196326   9.418   7.883   7.283
28089SOL    HW296327   9.507   8.003   7.350
28090SOL     OW96328   9.228   8.338   6.217
28090SOL    HW196329   9.253   8.413   6.156
28090SOL    HW296330   9.128   8.336   6.227
28091SOL     OW96331   9.778   8.063   7.058
28091SOL    HW196332   9.682   8.041   7.041
28091SOL    HW296333   9.812   8.124   6.987
28092SOL     OW96334   0.030   7.811   6.644
28092SOL    HW196335   0.070   7.838   6.557
28092SOL    HW296336   9.969   7.884   6.676
28093SOL     OW96337   9.906   8.692   6.751
28093SOL    HW196338   9.807   8.695   6.741
28093SOL    HW296339   9.938   8.598   6.737
28094SOL     OW96340   9.380   8.082   6.689
28094SOL    HW196341   9.406   8.143   6.764
28094SOL    HW296342   9.367   8.136   6.606
28095SOL     OW96343   9.594   8.739   7.024
28095SOL    HW196344   9.617   8.827   7.066
28095SOL    HW296345   9.513   8.701   7.067
28096SOL     OW96346   9.564   7.603   7.384
28096SOL    HW196347   9.501   7.646   7.319
28096SOL    HW296348   9.652   7.650   7.380
28097SOL     OW96349   9.828   8.849   7.772
28097SOL    HW196350   9.787   8.853   7.863
28097SOL    HW296351   9.921   8.811   7.778
28098SOL     OW96352   9.649   8.779   7.574
28098SOL    HW196353   9.691   8.798   7.486
28098SOL    HW296354   9.712   8.805   7.648
28099SOL     OW96355   9.770   7.720   8.442
28099SOL    HW196356   9.846   7.785   8.441
28099SOL    HW296357   9.801   7.634   8.402
28100SOL     OW96358   9.546   8.127   7.863
28100SOL    HW196359   9.592   8.143   7.950
28100SOL    HW296360   9.447   8.117   7.879
28101SOL     OW96361   9.391   8.388   8.969
28101SOL    HW196362   9.484   8.415   8.994
28101SOL    HW296363   9.343   8.354   9.050
28102SOL     OW96364   9.658   8.041   7.437
28102SOL    HW196365   9.653   8.140   7.449
28102SOL    HW296366   9.746   8.017   7.396
28103SOL     OW96367   9.939   8.948   8.164
28103SOL    HW196368   0.019   8.949   8.105
28103SOL    HW296369   9.858   8.923   8.111
28104SOL     OW96370   9.554   8.581   7.893
28104SOL    HW196371   9.613   8.583   7.974
28104SOL    HW296372   9.605   8.542   7.816
28105SOL     OW96373   9.553   7.909   8.639
28105SOL    HW196374   9.558   7.809   8.638
28105SOL    HW296375   9.498   7.941   8.562
28106SOL     OW96376   9.957   8.544   9.052
28106SOL    HW196377   9.878   8.587   9.094
28106SOL    HW296378   9.980   8.461   9.102
28107SOL     OW96379   9.295   8.093   7.974
28107SOL    HW196380   9.306   8.032   8.052
28107SOL    HW296381   9.265   8.183   8.006
28108SOL     OW96382   9.659   7.632   8.127
28108SOL    HW196383   9.706   7.609   8.213
28108SOL    HW296384   9.673   7.559   8.061
28109SOL     OW96385   9.588   7.629   8.627
28109SOL    HW196386   9.573   7.530   8.624
28109SOL    HW296387   9.660   7.653   8.562
28110SOL     OW96388   9.471   8.949   7.731
28110SOL    HW196389   9.510   8.865   7.693
28110SOL    HW296390   9.503   9.028   7.677
28111SOL     OW96391   9.477   9.002   8.007
28111SOL    HW196392   9.384   8.987   8.042
28111SOL    HW296393   9.478   8.986   7.908
28112SOL     OW96394   9.643   8.308   7.460
28112SOL    HW196395   9.631   8.347   7.369
28112SOL    HW296396   9.660   8.382   7.526
28113SOL     OW96397   9.324   8.192   7.593
28113SOL    HW196398   9.409   8.138   7.588
28113SOL    HW296399   9.255   8.141   7.644
28114SOL     OW96400   9.993   9.159   8.553
28114SOL    HW196401   0.080   9.144   8.506
28114SOL    HW296402   9.924   9.097   8.516
28115SOL     OW96403   9.557   8.027   8.885
28115SOL    HW196404   9.545   7.970   8.804
28115SOL    HW296405   9.494   7.997   8.957
28116SOL     OW96406   9.415   7.671   8.836
28116SOL    HW196407   9.484   7.656   8.765
28116SOL    HW296408   9.323   7.660   8.797
28117SOL     OW96409   9.616   8.430   8.280
28117SOL    HW196410   9.533   8.382   8.253
28117SOL    HW296411   9.615   8.444   8.379
28118SOL     OW96412   9.268   7.678   7.842
28118SOL    HW196413   9.326   7.686   7.762
28118SOL    HW296414   9.320   7.701   7.924
28119SOL     OW96415   9.951   8.205   8.736
28119SOL    HW196416   9.959   8.298   8.771
28119SOL    HW296417   0.043   8.165   8.726
28120SOL     OW96418   9.188   9.082   8.868
28120SOL    HW196419   9.276   9.117   8.839
28120SOL    HW296420   9.119   9.155   8.862
28121SOL     OW96421   9.558   7.885   8.342
28121SOL    HW196422   9.607   7.909   8.258
28121SOL    HW296423   9.615   7.825   8.398
28122SOL     OW96424   9.564   9.175   7.596
28122SOL    HW196425   9.647   9.205   7.550
28122SOL    HW296426   9.561   9.214   7.688
28123SOL     OW96427   9.242   8.600   8.340
28123SOL    HW196428   9.163   8.577   8.283
28123SOL    HW296429   9.260   8.524   8.402
28124SOL     OW96430   9.278   8.540   7.883
28124SOL    HW196431   9.371   8.568   7.907
28124SOL    HW296432   9.275   8.515   7.786
28125SOL     OW96433   9.764   8.732   9.114
28125SOL    HW196434   9.710   8.768   9.038
28125SOL    HW296435   9.832   8.801   9.140
28126SOL     OW96436   9.641   8.478   9.039
28126SOL    HW196437   9.680   8.475   8.947
28126SOL    HW296438   9.656   8.568   9.079
28127SOL     OW96439   9.363   8.780   8.508
28127SOL    HW196440   9.334   8.719   8.434
28127SOL    HW296441   9.285   8.800   8.567
28128SOL     OW96442   0.048   8.879   8.787
28128SOL    HW196443   0.091   8.969   8.792
28128SOL    HW296444   9.950   8.891   8.773
28129SOL     OW96445   9.404   7.665   9.104
28129SOL    HW196446   9.415   7.664   9.004
28129SOL    HW296447   9.309   7.647   9.128
28130SOL     OW96448   9.389   7.716   8.086
28130SOL    HW196449   9.372   7.805   8.127
28130SOL    HW296450   9.483   7.688   8.106
28131SOL     OW96451   9.552   7.932   7.666
28131SOL    HW196452   9.601   7.965   7.586
28131SOL    HW296453   9.557   8.001   7.739
28132SOL     OW96454   9.617   9.211   8.136
28132SOL    HW196455   9.569   9.131   8.100
28132SOL    HW296456   9.694   9.232   8.076
28133SOL     OW96457   9.573   8.697   8.674
28133SOL    HW196458   9.576   8.749   8.759
28133SOL    HW296459   9.504   8.735   8.614
28134SOL     OW96460   9.627   8.165   8.125
28134SOL    HW196461   9.686   8.225   8.179
28134SOL    HW296462   9.662   8.072   8.128
28135SOL     OW96463   9.416   7.697   7.603
28135SOL    HW196464   9.473   7.656   7.531
28135SOL    HW296465   9.448   7.790   7.622
28136SOL     OW96466   9.321   7.951   8.209
28136SOL    HW196467   9.244   7.999   8.252
28136SOL    HW296468   9.394   7.939   8.277
28137SOL     OW96469   9.722   8.515   7.639
28137SOL    HW196470   9.817   8.524   7.609
28137SOL    HW296471   9.672   8.598   7.616
28138SOL     OW96472   0.014   8.067   7.607
28138SOL    HW196473   0.103   8.022   7.607
28138SOL    HW296474   9.941   7.998   7.605
28139SOL     OW96475   9.300   7.446   7.558
28139SOL    HW196476   9.378   7.384   7.568
28139SOL    HW296477   9.329   7.539   7.581
28140SOL     OW96478   9.559   8.448   8.551
28140SOL    HW196479   9.564   8.378   8.622
28140SOL    HW296480   9.569   8.539   8.592
28141SOL     OW96481   9.777   8.062   8.559
28141SOL    HW196482   9.818   8.118   8.631
28141SOL    HW296483   9.698   8.014   8.595
28142SOL     OW96484   0.016   8.464   8.803
28142SOL    HW196485   0.116   8.464   8.809
28142SOL    HW296486   9.977   8.494   8.890
28143SOL     OW96487   9.841   7.490   8.319
28143SOL    HW196488   9.817   7.425   8.247
28143SOL    HW296489   9.911   7.449   8.378
28144SOL     OW96490   9.289   8.402   8.523
28144SOL    HW196491   9.387   8.421   8.530
28144SOL    HW296492   9.276   8.304   8.503
28145SOL     OW96493   9.563   7.472   7.794
28145SOL    HW196494   9.593   7.567   7.793
28145SOL    HW296495   9.481   7.464   7.851
28146SOL     OW96496   0.035   8.054   9.105
28146SOL    HW196497   9.960   8.038   9.040
28146SOL    HW296498   0.117   8.006   9.073
28147SOL     OW96499   9.313   8.470   7.617
28147SOL    HW196500   9.332   8.372   7.610
28147SOL    HW296501   9.367   8.519   7.549
28148SOL     OW96502   9.490   8.253   8.742
28148SOL    HW196503   9.525   8.173   8.790
28148SOL    HW296504   9.446   8.314   8.807
28149SOL     OW96505   9.991   8.968   7.405
28149SOL    HW196506   9.974   9.018   7.490
28149SOL    HW296507   0.058   8.895   7.422
28150SOL     OW96508   9.827   9.001   8.412
28150SOL    HW196509   9.870   8.978   8.325
28150SOL    HW296510   9.731   8.971   8.410
28151SOL     OW96511   9.400   8.251   8.258
28151SOL    HW196512   9.467   8.204   8.201
28151SOL    HW296513   9.325   8.285   8.200
28152SOL     OW96514   9.258   8.295   9.181
28152SOL    HW196515   9.159   8.308   9.188
28152SOL    HW296516   9.291   8.249   9.264
28153SOL     OW96517   9.739   7.896   9.159
28153SOL    HW196518   9.772   7.937   9.074
28153SOL    HW296519   9.755   7.960   9.234
28154SOL     OW96520   9.768   8.291   7.800
28154SOL    HW196521   9.749   8.367   7.737
28154SOL    HW296522   9.687   8.233   7.806
28155SOL     OW96523   9.328   7.417   7.931
28155SOL    HW196524   9.271   7.345   7.892
28155SOL    HW296525   9.284   7.506   7.918
28156SOL     OW96526   9.632   9.018   9.106
28156SOL    HW196527   9.616   9.010   9.205
28156SOL    HW296528   9.696   9.093   9.088
28157SOL     OW96529   9.717   8.858   8.025
28157SOL    HW196530   9.704   8.766   8.063
28157SOL    HW296531   9.630   8.907   8.028
28158SOL     OW96532   9.361   8.669   9.011
28158SOL    HW196533   9.352   8.574   8.981
28158SOL    HW296534   9.281   8.721   8.982
28159SOL     OW96535   9.560   8.940   8.390
28159SOL    HW196536   9.493   8.880   8.434
28159SOL    HW296537   9.513   9.017   8.347
28160SOL     OW96538   9.711   7.907   8.114
28160SOL    HW196539   9.693   7.809   8.106
28160SOL    HW296540   9.801   7.927   8.075
28161SOL     OW96541   9.741   8.509   8.791
28161SOL    HW196542   9.836   8.506   8.762
28161SOL    HW296543   9.693   8.582   8.741
28162SOL     OW96544   9.460   8.615   7.430
28162SOL    HW196545   9.424   8.640   7.340
28162SOL    HW296546   9.508   8.693   7.470
28163SOL     OW96547   9.918   9.079   7.645
28163SOL    HW196548   9.856   9.147   7.607
28163SOL    HW296549   9.865   9.007   7.690
28164SOL     OW96550   9.403   7.944   9.106
28164SOL    HW196551   9.408   7.844   9.108
28164SOL    HW296552   9.461   7.982   9.178
28165SOL     OW96553   9.213   8.336   8.065
28165SOL    HW196554   9.239   8.412   8.006
28165SOL    HW296555   9.114   8.332   8.072
28166SOL     OW96556   9.826   8.040   8.927
28166SOL    HW196557   9.727   8.039   8.914
28166SOL    HW296558   9.868   8.100   8.859
28167SOL     OW96559   9.970   7.918   8.435
28167SOL    HW196560   0.053   7.954   8.478
28167SOL    HW296561   9.892   7.972   8.464
28168SOL     OW96562   9.378   8.125   8.513
28168SOL    HW196563   9.427   8.170   8.587
28168SOL    HW296564   9.406   8.165   8.426
28169SOL     OW96565   9.576   8.816   8.928
28169SOL    HW196566   9.583   8.901   8.981
28169SOL    HW296567   9.495   8.765   8.958
28170SOL     OW96568   9.626   7.675   9.265
28170SOL    HW196569   9.542   7.662   9.212
28170SOL    HW296570   9.679   7.751   9.226
28171SOL     OW96571   9.901   8.962   9.670
28171SOL    HW196572   9.861   8.913   9.748
28171SOL    HW296573   9.998   8.939   9.662
28172SOL     OW96574   9.787   7.491   9.399
28172SOL    HW196575   9.874   7.528   9.431
28172SOL    HW296576   9.739   7.560   9.345
28173SOL     OW96577   9.674   8.576   9.905
28173SOL    HW196578   9.620   8.538   9.980
28173SOL    HW296579   9.766   8.535   9.908
28174SOL     OW96580   9.634   8.739   9.350
28174SOL    HW196581   9.683   8.735   9.263
28174SOL    HW296582   9.625   8.834   9.379
28175SOL     OW96583   9.824   7.722   0.255
28175SOL    HW196584   9.874   7.807   0.270
28175SOL    HW296585   9.883   7.644   0.277
28176SOL     OW96586   9.566   8.210   9.753
28176SOL    HW196587   9.615   8.214   9.840
28176SOL    HW296588   9.474   8.246   9.765
28177SOL     OW96589   9.779   8.080   9.358
28177SOL    HW196590   9.758   8.169   9.318
28177SOL    HW296591   9.874   8.079   9.388
28178SOL     OW96592   9.563   8.571   9.660
28178SOL    HW196593   9.608   8.565   9.749
28178SOL    HW296594   9.626   8.539   9.589
28179SOL     OW96595   9.626   7.678   9.764
28179SOL    HW196596   9.703   7.733   9.795
28179SOL    HW296597   9.597   7.709   9.674
28180SOL     OW96598   9.292   8.012   9.773
28180SOL    HW196599   9.281   7.977   9.866
28180SOL    HW296600   9.314   8.109   9.776
28181SOL     OW96601   9.381   8.757   9.726
28181SOL    HW196602   9.450   8.688   9.703
28181SOL    HW296603   9.377   8.827   9.655
28182SOL     OW96604   9.720   8.323   9.257
28182SOL    HW196605   9.685   8.365   9.173
28182SOL    HW296606   9.721   8.392   9.329
28183SOL     OW96607   9.331   8.180   9.419
28183SOL    HW196608   9.415   8.133   9.447
28183SOL    HW296609   9.252   8.136   9.462
28184SOL     OW96610   9.299   7.775   9.635
28184SOL    HW196611   9.386   7.763   9.586
28184SOL    HW296612   9.303   7.858   9.691
28185SOL     OW96613   9.625   9.011   9.385
28185SOL    HW196614   9.720   9.036   9.402
28185SOL    HW296615   9.565   9.068   9.442
28186SOL     OW96616   9.212   8.544   9.713
28186SOL    HW196617   9.267   8.625   9.732
28186SOL    HW296618   9.231   8.511   9.621
28187SOL     OW96619   0.018   7.651   9.993
28187SOL    HW196620   0.047   7.581   0.058
28187SOL    HW296621   0.072   7.734   0.006
28188SOL     OW96622   9.557   8.047   9.516
28188SOL    HW196623   9.641   8.062   9.464
28188SOL    HW296624   9.563   8.094   9.604
28189SOL     OW96625   9.684   9.068   0.006
28189SOL    HW196626   9.682   9.153   9.953
28189SOL    HW296627   9.770   9.061   0.057
28190SOL     OW96628   9.543   7.770   9.514
28190SOL    HW196629   9.576   7.730   9.429
28190SOL    HW296630   9.551   7.870   9.510
28191SOL     OW96631   9.254   7.938   0.030
28191SOL    HW196632   9.263   8.025   0.079
28191SOL    HW296633   9.300   7.866   0.082
28192SOL     OW96634   9.751   8.516   9.456
28192SOL    HW196635   9.849   8.531   9.447
28192SOL    HW296636   9.702   8.598   9.424
28193SOL     OW96637   0.059   8.068   9.376
28193SOL    HW196638   0.044   8.058   9.278
28193SOL    HW296639   0.132   8.005   9.405
28194SOL     OW96640   9.295   7.475   9.388
28194SOL    HW196641   9.382   7.427   9.393
28194SOL    HW296642   9.287   7.540   9.464
28195SOL     OW96643   9.519   7.427   9.715
28195SOL    HW196644   9.564   7.513   9.739
28195SOL    HW296645   9.420   7.439   9.720
28196SOL     OW96646   9.283   8.453   9.466
28196SOL    HW196647   9.317   8.360   9.452
28196SOL    HW296648   9.326   8.515   9.400
28197SOL     OW96649   9.952   8.911   9.215
28197SOL    HW196650   9.925   8.969   9.292
28197SOL    HW296651   0.028   8.853   9.244
28198SOL     OW96652   9.925   8.471   9.910
28198SOL    HW196653   9.982   8.493   9.831
28198SOL    HW296654   9.979   8.479   9.994
28199SOL     OW96655   9.794   8.288   9.617
28199SOL    HW196656   9.774   8.365   9.556
28199SOL    HW296657   9.709   8.260   9.662
28200SOL     OW96658   9.260   7.512   9.705
28200SOL    HW196659   9.165   7.486   9.690
28200SOL    HW296660   9.269   7.611   9.697
28201SOL     OW96661   9.780   8.834   9.890
28201SOL    HW196662   9.727   8.750   9.881
28201SOL    HW296663   9.721   8.908   9.921
28202SOL     OW96664   9.826   7.817   9.886
28202SOL    HW196665   9.885   7.747   9.928
28202SOL    HW296666   9.883   7.885   9.840
28203SOL     OW96667   9.394   8.622   9.286
28203SOL    HW196668   9.377   8.643   9.189
28203SOL    HW296669   9.478   8.666   9.316
28204SOL     OW96670   9.884   9.076   9.425
28204SOL    HW196671   9.945   9.155   9.416
28204SOL    HW296672   9.890   9.040   9.518
28205SOL     OW96673   9.298   8.289   9.801
28205SOL    HW196674   9.287   8.382   9.768
28205SOL    HW296675   9.215   8.260   9.849
28206SOL     OW96676   0.003   7.925   0.331
28206SOL    HW196677   0.098   7.955   0.330
28206SOL    HW296678   9.965   7.937   0.423
28207SOL     OW96679   9.829   9.550   1.019
28207SOL    HW196680   9.909   9.567   1.077
28207SOL    HW296681   9.830   9.454   0.989
28208SOL     OW96682   9.796   9.888   0.147
28208SOL    HW196683   9.811   9.985   0.130
28208SOL    HW296684   9.788   9.840   0.059
28209SOL     OW96685   9.617   9.797   1.217
28209SOL    HW196686   9.601   9.699   1.221
28209SOL    HW296687   9.552   9.844   1.277
28210SOL     OW96688   9.772   9.610   0.506
28210SOL    HW196689   9.745   9.615   0.602
28210SOL    HW296690   9.725   9.682   0.454
28211SOL     OW96691   9.619   9.523   1.197
28211SOL    HW196692   9.610   9.426   1.221
28211SOL    HW296693   9.689   9.534   1.127
28212SOL     OW96694   0.053   0.039   0.303
28212SOL    HW196695   9.962   0.032   0.343
28212SOL    HW296696   0.121   0.002   0.366
28213SOL     OW96697   9.604   9.875   0.952
28213SOL    HW196698   9.637   9.809   0.884
28213SOL    HW296699   9.618   9.838   1.044
28214SOL     OW96700   9.646   9.824   0.372
28214SOL    HW196701   9.687   9.840   0.282
28214SOL    HW296702   9.562   9.877   0.380
28215SOL     OW96703   9.886   9.845   1.249
28215SOL    HW196704   9.902   9.910   1.323
28215SOL    HW296705   9.788   9.835   1.234
28216SOL     OW96706   9.808   9.295   0.938
28216SOL    HW196707   9.809   9.277   0.839
28216SOL    HW296708   9.779   9.213   0.986
28217SOL     OW96709   9.320   0.278   1.097
28217SOL    HW196710   9.343   0.181   1.087
28217SOL    HW296711   9.221   0.288   1.106
28218SOL     OW96712   9.474   9.996   1.370
28218SOL    HW196713   9.515   9.979   1.460
28218SOL    HW296714   9.426   0.083   1.371
28219SOL     OW96715   9.822   0.021   0.462
28219SOL    HW196716   9.758   0.097   0.478
28219SOL    HW296717   9.770   9.938   0.443
28220SOL     OW96718   9.753   9.689   0.792
28220SOL    HW196719   9.774   9.633   0.872
28220SOL    HW296720   9.836   9.737   0.762
28221SOL     OW96721   0.042   9.638   1.184
28221SOL    HW196722   0.118   9.672   1.129
28221SOL    HW296723   9.983   9.714   1.211
28222SOL     OW96724   9.403   0.020   1.094
28222SOL    HW196725   9.432   9.998   1.187
28222SOL    HW296726   9.462   9.972   1.029
28223SOL     OW96727   9.735   9.492   2.844
28223SOL    HW196728   9.779   9.577   2.817
28223SOL    HW296729   9.796   9.415   2.825
28224SOL     OW96730   9.869   9.962   1.946
28224SOL    HW196731   9.803   9.892   1.974
28224SOL    HW296732   9.896   9.946   1.851
28225SOL     OW96733   9.587   9.733   3.048
28225SOL    HW196734   9.590   9.634   3.062
28225SOL    HW296735   9.510   9.772   3.098
28226SOL     OW96736   9.616   9.466   2.361
28226SOL    HW196737   9.559   9.517   2.426
28226SOL    HW296738   9.710   9.500   2.366
28227SOL     OW96739   9.492   9.400   2.732
28227SOL    HW196740   9.575   9.434   2.777
28227SOL    HW296741   9.501   9.301   2.716
28228SOL     OW96742   9.596   9.457   3.083
28228SOL    HW196743   9.577   9.361   3.100
28228SOL    HW296744   9.650   9.466   2.999
28229SOL     OW96745   9.457   9.827   3.359
28229SOL    HW196746   9.450   9.732   3.329
28229SOL    HW296747   9.430   9.834   3.455
28230SOL     OW96748   9.422   9.561   3.279
28230SOL    HW196749   9.489   9.521   3.216
28230SOL    HW296750   9.330   9.533   3.253
28231SOL     OW96751   9.277   9.630   2.336
28231SOL    HW196752   9.317   9.693   2.269
28231SOL    HW296753   9.340   9.618   2.412
28232SOL     OW96754   9.922   9.916   3.272
28232SOL    HW196755   9.876   0.005   3.266
28232SOL    HW296756   0.021   9.929   3.264
28233SOL     OW96757   0.090   0.050   2.088
28233SOL    HW196758   0.072   0.128   2.147
28233SOL    HW296759   0.004   0.017   2.049
28234SOL     OW96760   9.528   9.882   2.824
28234SOL    HW196761   9.604   9.907   2.764
28234SOL    HW296762   9.561   9.818   2.894
28235SOL     OW96763   9.392   9.534   3.553
28235SOL    HW196764   9.403   9.536   3.453
28235SOL    HW296765   9.300   9.504   3.576
28236SOL     OW96766   9.448   9.587   2.542
28236SOL    HW196767   9.407   9.667   2.586
28236SOL    HW296768   9.461   9.514   2.609
28237SOL     OW96769   9.324   9.787   2.669
28237SOL    HW196770   9.235   9.806   2.710
28237SOL    HW296771   9.396   9.831   2.724
28238SOL     OW96772   9.233   9.310   2.126
28238SOL    HW196773   9.314   9.285   2.179
28238SOL    HW296774   9.213   9.407   2.140
28239SOL     OW96775   9.833   9.850   3.024
28239SOL    HW196776   9.871   9.861   3.116
28239SOL    HW296777   9.742   9.809   3.030
28240SOL     OW96778   9.903   9.286   2.796
28240SOL    HW196779   9.892   9.200   2.747
28240SOL    HW296780   9.980   9.279   2.860
28241SOL     OW96781   9.302   0.258   2.914
28241SOL    HW196782   9.397   0.262   2.947
28241SOL    HW296783   9.241   0.242   2.992
28242SOL     OW96784   9.441   9.266   2.303
28242SOL    HW196785   9.518   9.330   2.314
28242SOL    HW296786   9.367   9.292   2.365
28243SOL     OW96787   9.501   0.060   3.222
28243SOL    HW196788   9.499   9.976   3.276
28243SOL    HW296789   9.462   0.135   3.276
28244SOL     OW96790   9.811   9.613   3.676
28244SOL    HW196791   9.902   9.603   3.637
28244SOL    HW296792   9.802   9.703   3.719
28245SOL     OW96793   9.741   9.986   2.392
28245SOL    HW196794   9.712   0.077   2.364
28245SOL    HW296795   9.672   9.919   2.366
28246SOL     OW96796   9.221   9.368   2.425
28246SOL    HW196797   9.132   9.335   2.395
28246SOL    HW296798   9.230   9.465   2.403
28247SOL     OW96799   9.743   9.936   2.665
28247SOL    HW196800   9.798   9.859   2.695
28247SOL    HW296801   9.751   9.945   2.565
28248SOL     OW96802   9.363   9.798   3.625
28248SOL    HW196803   9.375   9.701   3.605
28248SOL    HW296804   9.408   9.820   3.712
28249SOL     OW96805   9.890   9.729   2.783
28249SOL    HW196806   9.985   9.733   2.752
28249SOL    HW296807   9.884   9.768   2.875
28250SOL     OW96808   9.355   9.929   3.032
28250SOL    HW196809   9.404   9.985   3.099
28250SOL    HW296810   9.407   9.927   2.946
28251SOL     OW96811   9.608   9.436   3.686
28251SOL    HW196812   9.530   9.471   3.635
28251SOL    HW296813   9.685   9.500   3.678
28252SOL     OW96814   9.790   9.251   3.800
28252SOL    HW196815   9.875   9.294   3.830
28252SOL    HW296816   9.734   9.319   3.752
28253SOL     OW96817   9.779   9.857   3.812
28253SOL    HW196818   9.753   9.949   3.783
28253SOL    HW296819   9.847   9.863   3.885
28254SOL     OW96820   9.577   9.765   4.793
28254SOL    HW196821   9.566   9.676   4.836
28254SOL    HW296822   9.498   9.823   4.813
28255SOL     OW96823   9.623   9.555   4.192
28255SOL    HW196824   9.545   9.557   4.255
28255SOL    HW296825   9.590   9.548   4.098
28256SOL     OW96826   9.409   9.382   4.576
28256SOL    HW196827   9.418   9.380   4.675
28256SOL    HW296828   9.457   9.304   4.536
28257SOL     OW96829   9.569   9.525   4.934
28257SOL    HW196830   9.520   9.444   4.901
28257SOL    HW296831   9.664   9.500   4.954
28258SOL     OW96832   9.532   9.816   5.252
28258SOL    HW196833   9.486   9.742   5.202
28258SOL    HW296834   9.486   9.830   5.340
28259SOL     OW96835   9.396   9.597   5.140
28259SOL    HW196836   9.461   9.574   5.067
28259SOL    HW296837   9.305   9.565   5.114
28260SOL     OW96838   9.291   9.567   4.113
28260SOL    HW196839   9.363   9.568   4.044
28260SOL    HW296840   9.331   9.578   4.204
28261SOL     OW96841   9.958   9.917   5.077
28261SOL    HW196842   9.940   0.013   5.054
28261SOL    HW296843   0.056   9.905   5.093
28262SOL     OW96844   9.979   9.936   3.987
28262SOL    HW196845   9.916   9.961   4.061
28262SOL    HW296846   0.072   9.961   4.013
28263SOL     OW96847   9.600   9.898   4.544
28263SOL    HW196848   9.647   9.851   4.469
28263SOL    HW296849   9.605   9.843   4.627
28264SOL     OW96850   9.359   9.533   5.410
28264SOL    HW196851   9.363   9.548   5.311
28264SOL    HW296852   9.266   9.508   5.436
28265SOL     OW96853   9.410   9.560   4.360
28265SOL    HW196854   9.387   9.650   4.397
28265SOL    HW296855   9.410   9.493   4.433
28266SOL     OW96856   9.509   9.812   3.868
28266SOL    HW196857   9.606   9.828   3.847
28266SOL    HW296858   9.479   9.879   3.936
28267SOL     OW96859   9.490   9.546   3.924
28267SOL    HW196860   9.541   9.495   3.855
28267SOL    HW296861   9.493   9.644   3.902
28268SOL     OW96862   9.348   9.796   4.468
28268SOL    HW196863   9.263   9.823   4.513
28268SOL    HW296864   9.423   9.853   4.500
28269SOL     OW96865   9.305   9.321   3.859
28269SOL    HW196866   9.369   9.244   3.868
28269SOL    HW296867   9.347   9.404   3.896
28270SOL     OW96868   9.830   9.862   4.835
28270SOL    HW196869   9.860   9.863   4.931
28270SOL    HW296870   9.738   9.823   4.830
28271SOL     OW96871   9.270   0.182   4.785
28271SOL    HW196872   9.353   0.229   4.815
28271SOL    HW296873   9.190   0.240   4.804
28272SOL     OW96874   9.519   9.266   4.147
28272SOL    HW196875   9.573   9.334   4.197
28272SOL    HW296876   9.424   9.271   4.176
28273SOL     OW96877   9.513   0.040   5.076
28273SOL    HW196878   9.534   9.969   5.142
28273SOL    HW296879   9.458   0.111   5.120
28274SOL     OW96880   9.733   9.667   5.431
28274SOL    HW196881   9.688   9.719   5.358
28274SOL    HW296882   9.763   9.730   5.502
28275SOL     OW96883   9.812   9.999   4.199
28275SOL    HW196884   9.740   0.067   4.185
28275SOL    HW296885   9.773   9.918   4.244
28276SOL     OW96886   9.253   9.307   4.195
28276SOL    HW196887   9.157   9.279   4.197
28276SOL    HW296888   9.258   9.403   4.167
28277SOL     OW96889   9.736   9.769   4.333
28277SOL    HW196890   9.701   9.691   4.283
28277SOL    HW296891   9.834   9.758   4.349
28278SOL     OW96892   9.394   9.793   5.491
28278SOL    HW196893   9.384   9.695   5.475
28278SOL    HW296894   9.440   9.808   5.578
28279SOL     OW96895   0.020   9.844   4.639
28279SOL    HW196896   0.104   9.869   4.687
28279SOL    HW296897   9.945   9.837   4.704
28280SOL     OW96898   9.376   9.940   4.862
28280SOL    HW196899   9.427   9.967   4.944
28280SOL    HW296900   9.332   0.020   4.822
28281SOL     OW96901   9.591   9.448   5.514
28281SOL    HW196902   9.501   9.471   5.476
28281SOL    HW296903   9.658   9.516   5.485
28282SOL     OW96904   9.743   9.264   5.662
28282SOL    HW196905   9.834   9.301   5.681
28282SOL    HW296906   9.694   9.328   5.602
28283SOL     OW96907   9.803   9.517   6.574
28283SOL    HW196908   9.877   9.564   6.623
28283SOL    HW296909   9.838   9.431   6.537
28284SOL     OW96910   9.801   9.841   5.636
28284SOL    HW196911   9.782   9.938   5.619
28284SOL    HW296912   9.887   9.833   5.687
28285SOL     OW96913   9.589   9.724   6.769
28285SOL    HW196914   9.600   9.624   6.764
28285SOL    HW296915   9.519   9.746   6.836
28286SOL     OW96916   9.605   9.446   6.005
28286SOL    HW196917   9.573   9.506   6.078
28286SOL    HW296918   9.582   9.486   5.916
28287SOL     OW96919   9.538   9.425   6.401
28287SOL    HW196920   9.612   9.462   6.458
28287SOL    HW296921   9.546   9.326   6.396
28288SOL     OW96922   9.606   9.449   6.763
28288SOL    HW196923   9.584   9.352   6.775
28288SOL    HW296924   9.680   9.459   6.697
28289SOL     OW96925   9.424   9.527   6.965
28289SOL    HW196926   9.488   9.494   6.895
28289SOL    HW296927   9.330   9.514   6.933
28290SOL     OW96928   9.311   9.567   5.973
28290SOL    HW196929   9.372   9.568   5.894
28290SOL    HW296930   9.364   9.583   6.056
28291SOL     OW96931   9.959   9.904   6.953
28291SOL    HW196932   9.920   9.931   7.041
28291SOL    HW296933   0.055   9.880   6.965
28292SOL     OW96934   0.026   9.931   5.793
28292SOL    HW196935   9.949   9.956   5.852
28292SOL    HW296936   0.112   9.952   5.839
28293SOL     OW96937   9.570   9.819   6.506
28293SOL    HW196938   9.657   9.813   6.457
28293SOL    HW296939   9.579   9.772   6.594
28294SOL     OW96940   9.403   9.418   7.219
28294SOL    HW196941   9.416   9.459   7.129
28294SOL    HW296942   9.307   9.421   7.245
28295SOL     OW96943   9.464   9.595   6.197
28295SOL    HW196944   9.429   9.680   6.236
28295SOL    HW296945   9.489   9.532   6.271
28296SOL     OW96946   9.543   9.802   5.724
28296SOL    HW196947   9.637   9.818   5.695
28296SOL    HW296948   9.516   9.874   5.789
28297SOL     OW96949   9.491   9.540   5.761
28297SOL    HW196950   9.531   9.494   5.682
28297SOL    HW296951   9.505   9.639   5.753
28298SOL     OW96952   9.360   9.819   6.322
28298SOL    HW196953   9.271   9.828   6.367
28298SOL    HW296954   9.433   9.827   6.390
28299SOL     OW96955   9.298   9.323   5.702
28299SOL    HW196956   9.360   9.246   5.715
28299SOL    HW296957   9.340   9.406   5.740
28300SOL     OW96958   9.808   9.890   6.728
28300SOL    HW196959   9.860   9.902   6.813
28300SOL    HW296960   9.725   9.838   6.746
28301SOL     OW96961   9.896   9.278   6.492
28301SOL    HW196962   9.880   9.200   6.432
28301SOL    HW296963   9.957   9.251   6.567
28302SOL     OW96964   9.289   0.200   6.600
28302SOL    HW196965   9.363   0.262   6.624
28302SOL    HW296966   9.316   0.106   6.621
28303SOL     OW96967   9.474   9.208   6.003
28303SOL    HW196968   9.534   9.288   6.013
28303SOL    HW296969   9.379   9.236   6.015
28304SOL     OW96970   9.521   0.072   6.880
28304SOL    HW196971   9.618   0.087   6.899
28304SOL    HW296972   9.469   0.082   6.965
28305SOL     OW96973   9.780   9.706   7.334
28305SOL    HW196974   9.868   9.661   7.348
28305SOL    HW296975   9.763   9.771   7.408
28306SOL     OW96976   9.814   9.979   5.972
28306SOL    HW196977   9.760   0.063   5.979
28306SOL    HW296978   9.754   9.899   5.978
28307SOL     OW96979   9.228   9.312   6.027
28307SOL    HW196980   9.129   9.299   6.025
28307SOL    HW296981   9.248   9.409   6.010
28308SOL     OW96982   9.829   9.750   6.414
28308SOL    HW196983   9.814   9.661   6.458
28308SOL    HW296984   9.925   9.758   6.388
28309SOL     OW96985   9.995   9.683   6.701
28309SOL    HW196986   0.080   9.732   6.680
28309SOL    HW296987   9.919   9.748   6.707
28310SOL     OW96988   9.393   9.956   6.670
28310SOL    HW196989   9.444   9.994   6.747
28310SOL    HW296990   9.457   9.918   6.603
28311SOL     OW96991   9.621   9.476   7.379
28311SOL    HW196992   9.545   9.459   7.317
28311SOL    HW296993   9.667   9.561   7.353
28312SOL     OW96994   9.790   9.278   7.487
28312SOL    HW196995   9.888   9.300   7.481
28312SOL    HW296996   9.737   9.352   7.445
28313SOL     OW96997   9.823   9.580   8.330
28313SOL    HW196998   9.892   9.629   8.383
28313SOL    HW296999   9.830   9.482   8.349
28314SOL     OW97000   9.760   9.897   7.528
28314SOL    HW197001   9.753   9.991   7.494
28314SOL    HW297002   9.836   9.890   7.593
28315SOL     OW97003   9.603   9.550   7.856
28315SOL    HW197004   9.545   9.579   7.933
28315SOL    HW297005   9.610   9.625   7.790
28316SOL     OW97006   9.573   9.484   8.210
28316SOL    HW197007   9.654   9.522   8.254
28316SOL    HW297008   9.584   9.385   8.199
28317SOL     OW97009   9.504   9.874   8.879
28317SOL    HW197010   9.520   9.785   8.837
28317SOL    HW297011   9.452   9.862   8.963
28318SOL     OW97012   9.271   9.613   7.803
28318SOL    HW197013   9.331   9.572   7.734
28318SOL    HW297014   9.319   9.618   7.890
28319SOL     OW97015   9.985   9.924   8.816
28319SOL    HW197016   9.971   0.023   8.816
28319SOL    HW297017   0.081   9.904   8.834
28320SOL     OW97018   9.980   9.936   7.687
28320SOL    HW197019   9.920   9.986   7.748
28320SOL    HW297020   0.068   9.920   7.733
28321SOL     OW97021   9.606   9.837   8.264
28321SOL    HW197022   9.687   9.827   8.206
28321SOL    HW297023   9.623   9.793   8.353
28322SOL     OW97024   9.414   9.631   8.041
28322SOL    HW197025   9.400   9.726   8.071
28322SOL    HW297026   9.461   9.580   8.113
28323SOL     OW97027   9.571   9.772   7.687
28323SOL    HW197028   9.633   9.815   7.622
28323SOL    HW297029   9.540   9.839   7.755
28324SOL     OW97030   9.440   9.550   7.584
28324SOL    HW197031   9.504   9.513   7.516
28324SOL    HW297032   9.476   9.636   7.619
28325SOL     OW97033   9.393   9.900   8.111
28325SOL    HW197034   9.330   9.967   8.151
28325SOL    HW297035   9.470   9.887   8.173
28326SOL     OW97036   9.317   9.296   7.554
28326SOL    HW197037   9.401   9.245   7.574
28326SOL    HW297038   9.334   9.394   7.565
28327SOL     OW97039   9.865   9.949   8.566
28327SOL    HW197040   9.898   9.929   8.659
28327SOL    HW297041   9.766   9.938   8.564
28328SOL     OW97042   9.829   9.313   8.378
28328SOL    HW197043   9.775   9.240   8.337
28328SOL    HW297044   9.889   9.275   8.448
28329SOL     OW97045   9.319   0.176   8.473
28329SOL    HW197046   9.405   0.218   8.502
28329SOL    HW297047   9.254   0.180   8.548
28330SOL     OW97048   9.556   9.284   7.840
28330SOL    HW197049   9.582   9.380   7.839
28330SOL    HW297050   9.508   9.263   7.925
28331SOL     OW97051   9.546   0.106   8.753
28331SOL    HW197052   9.541   0.020   8.806
28331SOL    HW297053   9.480   0.171   8.791
28332SOL     OW97054   9.612   9.710   9.170
28332SOL    HW197055   9.682   9.654   9.125
28332SOL    HW297056   9.647   9.741   9.259
28333SOL     OW97057   9.789   0.064   7.854
28333SOL    HW197058   9.758   0.159   7.849
28333SOL    HW297059   9.711   0.004   7.868
28334SOL     OW97060   9.840   9.772   8.135
28334SOL    HW197061   9.836   9.696   8.200
28334SOL    HW297062   9.914   9.757   8.070
28335SOL     OW97063   9.372   9.817   9.114
28335SOL    HW197064   9.456   9.767   9.137
28335SOL    HW297065   9.360   9.893   9.177
28336SOL     OW97066   0.010   9.737   8.462
28336SOL    HW197067   0.105   9.769   8.463
28336SOL    HW297068   9.950   9.811   8.495
28337SOL     OW97069   9.597   9.938   8.538
28337SOL    HW197070   9.560   9.992   8.614
28337SOL    HW297071   9.546   9.959   8.454
28338SOL     OW97072   9.880   9.485   0.244
28338SOL    HW197073   9.922   9.576   0.257
28338SOL    HW297074   9.808   9.472   0.312
28339SOL     OW97075   9.726   9.801   9.399
28339SOL    HW197076   9.742   9.896   9.374
28339SOL    HW297077   9.810   9.762   9.439
28340SOL     OW97078   9.698   9.602   9.709
28340SOL    HW197079   9.738   9.662   9.779
28340SOL    HW297080   9.620   9.648   9.667
28341SOL     OW97081   0.342   9.607   9.916
28341SOL    HW197082   0.426   9.658   9.937
28341SOL    HW297083   0.263   9.665   9.934
28342SOL     OW97084   0.021   9.880   9.507
28342SOL    HW197085   9.944   9.928   9.551
28342SOL    HW297086   0.021   9.785   9.536
28343SOL     OW97087   9.973   9.553   9.984
28343SOL    HW197088   9.938   9.516   0.070
28343SOL    HW297089   0.043   9.622   0.004
28344SOL     OW97090   9.524   9.794   9.589
28344SOL    HW197091   9.591   9.791   9.515
28344SOL    HW297092   9.532   9.882   9.637
28345SOL     OW97093   9.789   0.030   9.598
28345SOL    HW197094   9.788   0.059   9.503
28345SOL    HW297095   9.696   0.034   9.636
28346SOL     OW97096   9.828   9.771   9.892
28346SOL    HW197097   9.886   9.693   9.917
28346SOL    HW297098   9.885   9.848   9.863
28347SOL     OW97099   9.983   9.730   0.270
28347SOL    HW197100   0.071   9.776   0.280
28347SOL    HW297101   9.916   9.795   0.233
  10.00000  10.00000  10.00000
